
                                 *****************
                                 * O   R   C   A *
                                 *****************

           --- An Ab Initio, DFT and Semiempirical electronic structure package ---

                  #######################################################
                  #                        -***-                        #
                  #  Department of molecular theory and spectroscopy    #
                  #              Directorship: Frank Neese              #
                  # Max Planck Institute for Chemical Energy Conversion #
                  #                  D-45470 Muelheim/Ruhr              #
                  #                       Germany                       #
                  #                                                     #
                  #                  All rights reserved                #
                  #                        -***-                        #
                  #######################################################


                         Program Version 4.0.1.2 - RELEASE -


 With contributions from (in alphabetic order):
   Daniel Aravena         : Magnetic Properties
   Michael Atanasov       : Ab Initio Ligand Field Theory
   Ute Becker             : Parallelization
   Martin Brehm           : Molecular dynamics
   Dmytro Bykov           : SCF Hessian
   Vijay G. Chilkuri      : MRCI spin determinant printing
   Dipayan Datta          : RHF DLPNO-CCSD density
   Achintya Kumar Dutta   : EOM-CC, STEOM-CC
   Dmitry Ganyushin       : Spin-Orbit,Spin-Spin,Magnetic field MRCI
   Yang Guo               : DLPNO-NEVPT2, CIM, IAO-localization
   Andreas Hansen         : Spin unrestricted coupled pair/coupled cluster methods
   Lee Huntington         : MR-EOM, pCC
   Robert Izsak           : Overlap fitted RIJCOSX, COSX-SCS-MP3, EOM
   Christian Kollmar      : KDIIS, OOCD, Brueckner-CCSD(T), CCSD density
   Simone Kossmann        : Meta GGA functionals, TD-DFT gradient, OOMP2, MP2 Hessian
   Martin Krupicka        : AUTO-CI
   Dagmar Lenk            : GEPOL surface
   Dimitrios Liakos       : Extrapolation schemes; parallel MDCI
   Dimitrios Manganas     : ROCIS; embedding schemes
   Dimitrios Pantazis     : SARC Basis sets
   Taras Petrenko         : DFT Hessian,TD-DFT gradient, ASA, ECA, R-Raman, ABS, FL, XAS/XES, NRVS
   Peter Pinski           : DLPNO-MP2
   Christoph Reimann      : Effective Core Potentials
   Marius Retegan         : Local ZFS, SOC
   Christoph Riplinger    : Optimizer, TS searches, QM/MM, DLPNO-CCSD(T), (RO)-DLPNO pert. Triples
   Tobias Risthaus        : Range-separated hybrids, TD-DFT gradient, RPA, STAB
   Michael Roemelt        : Restricted open shell CIS
   Masaaki Saitow         : Open-shell DLPNO
   Barbara Sandhoefer     : DKH picture change effects
   Kantharuban Sivalingam : CASSCF convergence, NEVPT2, FIC-MRCI
   Georgi Stoychev        : AutoAux
   Boris Wezisla          : Elementary symmetry handling
   Frank Wennmohs         : Technical directorship


 We gratefully acknowledge several colleagues who have allowed us to
 interface, adapt or use parts of their codes:
   Stefan Grimme, W. Hujo, H. Kruse,             : VdW corrections, initial TS optimization,
                  C. Bannwarth                     DFT functionals, gCP, sTDA/sTD-DF
   Ed Valeev                                     : LibInt (2-el integral package), F12 methods
   Garnet Chan, S. Sharma, J. Yang, R. Olivares  : DMRG
   Ulf Ekstrom                                   : XCFun DFT Library
   Mihaly Kallay                                 : mrcc  (arbitrary order and MRCC methods)
   Andreas Klamt, Michael Diedenhofen            : otool_cosmo (COSMO solvation model)
   Jiri Pittner, Ondrej Demel                    : Mk-CCSD
   Frank Weinhold                                : gennbo (NPA and NBO analysis)
   Christopher J. Cramer and Donald G. Truhlar   : smd solvation model


 Your calculation uses the libint2 library for the computation of 2-el integrals
 For citations please refer to: http://libint.valeyev.net

 This ORCA versions uses:
   CBLAS   interface :  Fast vector & matrix operations
   LAPACKE interface :  Fast linear algebra routines
   SCALAPACK package :  Parallel linear algebra routines


Your calculation utilizes the basis: 6-31G
   H-He, Li-Ne : W. J. Hehre, R. Ditchfield and J.A. Pople, J. Chem. Phys. 56, 2257 (1972).
                 Note: He and Ne are unpublished basis sets taken from the Gaussian program.
                 Note: Li and B from J. D. Dill and J. A. Pople, J. Chem. Phys. 62, 2921 (1975).
   Na - Ar     : M. M. Francl, W. J. Pietro, W. J. Hehre, J. S. Binkley, M. S. Gordon, 
                 D. J. DeFrees and J. A. Pople, J. Chem. Phys. 77, 3654 (1982).
   K - Zn      : V. A. Rassolov, J. A. Pople, M. A. Ratner, and T. L. Windus, J. Chem. Phys. 109, 1223 (1998).

================================================================================
                                        WARNINGS
                       Please study these warnings very carefully!
================================================================================

Warning: TCutStore was < 0. Adjusted to Thresh (uncritical)

INFO   : the flag for use of LIBINT has been found!

================================================================================
                                       INPUT FILE
================================================================================
NAME = orca_orbitals.in
|  1> # Test redundant internal optimization for: antagonist3.mol2
|  2> #
|  3> ! B3LYP
|  4> ! PrintBasis 6-31G keepdens
|  5> %output
|  6>  print[P_MOs]1
|  7>  end #output
|  8> * xyz 0 1
|  9>   C1      -0.93272005   -3.48005756   -4.19678331 
| 10>   C2      -0.46622859   -2.75716100   -3.07984829 
| 11>   C3       0.35723280   -1.63378419   -3.29103982 
| 12>   C4       0.71566892   -1.22161177   -4.59436693 
| 13>   C5       0.23489148   -1.97051696   -5.65979191 
| 14>   C6      -0.58684571   -3.09647583   -5.48627435 
| 15>   C7      -0.86304524   -3.20310313   -1.71211230 
| 16>   C8      -0.24818069   -2.41443943   -0.61601946 
| 17>   C9       0.53012676   -1.32050241   -0.89093085 
| 18>   N10      0.83498774   -0.90712023   -2.17341853 
| 19>   C11     -0.47538433   -2.81762602    0.77393761 
| 20>   N12      0.22941849   -2.04315565    1.76618361 
| 21>   N13      0.78381027   -0.77790574    1.50716037 
| 22>   C14      1.13719781   -0.45286835    0.19647641 
| 23>   O15      1.78666870    0.54139481   -0.09019072 
| 24>   O16     -1.10162902   -3.74559228    1.23242063 
| 25>   O17     -1.62730595   -4.12646013   -1.54920683 
| 26>  Cl18      0.66632195   -1.50240992   -7.26105337 
| 27>   C19      1.46174534   -0.11703352    2.68778118 
| 28>   C20      0.90814685    1.30355622    2.80325991 
| 29>   C21     -0.45909729    1.57486975    2.60439766 
| 30>   C22     -0.91232876    2.88702179    2.76418173 
| 31>   C23     -0.00948270    3.89187012    3.12105409 
| 32>   C24      1.33611518    3.54115501    3.31633506 
| 33>   N25      1.79276284    2.27195417    3.16661427 
| 34>   C26      2.99522976   -0.17538217    2.56857975 
| 35>   C27      3.53569502   -1.59507946    2.65440244 
| 36>   H28     -1.57539368   -4.35305961   -4.02105729 
| 37>   H29      1.34800601   -0.35062022   -4.76188991 
| 38>   H30     -0.94487039   -3.65612059   -6.35072549 
| 39>   H31      1.41338424   -0.06474570   -2.30377257 
| 40>   H32     -0.00955422   -2.21422621    2.75429345 
| 41>   H33      1.15077259   -0.66521771    3.62306405 
| 42>   H34     -1.15320358    0.78443657    2.32549961 
| 43>   H35     -1.96566876    3.12430260    2.61292358 
| 44>   H36     -0.33694435    4.92103856    3.24707978 
| 45>   H37      2.08688726    4.28809294    3.60185824 
| 46>   H38      3.43994362    0.44913834    3.37728349 
| 47>   H39      3.32024250    0.32291813    1.62738820 
| 48>   H40      4.62283052   -1.60454290    2.49899408 
| 49>   H41      3.35034274   -2.05112056    3.63394979 
| 50>   H42      3.09955389   -2.25840982    1.89716298 
| 51>  
| 52> *
| 53> %elprop
| 54> Quadrupole True
| 55> end
| 56> %pal
| 57> nprocs                     8
| 58> end
| 59> %plots
| 60> Format CUBE
| 61> MO("orcaHOMO-98.cube",98,0);
| 62> MO("orcaHOMO-1-97.cube",97,0);                    
| 63> MO("orcaHOMO-2-96.cube",96,0);
| 64> MO("orcaLUMO-99.cube",99,0);
| 65> MO("orcaLUMO+1-100.cube",100,0);                    
| 66> MO("orcaLUMO+2-101.cube",101,0);
| 67> endd                         ****END OF INPUT****
================================================================================

                       ****************************
                       * Single Point Calculation *
                       ****************************

---------------------------------
CARTESIAN COORDINATES (ANGSTROEM)
---------------------------------
  C     -0.932720   -3.480058   -4.196783
  C     -0.466229   -2.757161   -3.079848
  C      0.357233   -1.633784   -3.291040
  C      0.715669   -1.221612   -4.594367
  C      0.234891   -1.970517   -5.659792
  C     -0.586846   -3.096476   -5.486274
  C     -0.863045   -3.203103   -1.712112
  C     -0.248181   -2.414439   -0.616019
  C      0.530127   -1.320502   -0.890931
  N      0.834988   -0.907120   -2.173419
  C     -0.475384   -2.817626    0.773938
  N      0.229418   -2.043156    1.766184
  N      0.783810   -0.777906    1.507160
  C      1.137198   -0.452868    0.196476
  O      1.786669    0.541395   -0.090191
  O     -1.101629   -3.745592    1.232421
  O     -1.627306   -4.126460   -1.549207
  Cl     0.666322   -1.502410   -7.261053
  C      1.461745   -0.117034    2.687781
  C      0.908147    1.303556    2.803260
  C     -0.459097    1.574870    2.604398
  C     -0.912329    2.887022    2.764182
  C     -0.009483    3.891870    3.121054
  C      1.336115    3.541155    3.316335
  N      1.792763    2.271954    3.166614
  C      2.995230   -0.175382    2.568580
  C      3.535695   -1.595079    2.654402
  H     -1.575394   -4.353060   -4.021057
  H      1.348006   -0.350620   -4.761890
  H     -0.944870   -3.656121   -6.350725
  H      1.413384   -0.064746   -2.303773
  H     -0.009554   -2.214226    2.754293
  H      1.150773   -0.665218    3.623064
  H     -1.153204    0.784437    2.325500
  H     -1.965669    3.124303    2.612924
  H     -0.336944    4.921039    3.247080
  H      2.086887    4.288093    3.601858
  H      3.439944    0.449138    3.377283
  H      3.320242    0.322918    1.627388
  H      4.622831   -1.604543    2.498994
  H      3.350343   -2.051121    3.633950
  H      3.099554   -2.258410    1.897163

----------------------------
CARTESIAN COORDINATES (A.U.)
----------------------------
  NO LB      ZA    FRAG     MASS         X           Y           Z
   0 C     6.0000    0    12.011   -1.762585   -6.576356   -7.930771
   1 C     6.0000    0    12.011   -0.881044   -5.210279   -5.820070
   2 C     6.0000    0    12.011    0.675072   -3.087405   -6.219164
   3 C     6.0000    0    12.011    1.352418   -2.308512   -8.682095
   4 C     6.0000    0    12.011    0.443881   -3.723737  -10.695457
   5 C     6.0000    0    12.011   -1.108978   -5.851491  -10.367556
   6 C     6.0000    0    12.011   -1.630919   -6.052988   -3.235423
   7 C     6.0000    0    12.011   -0.468994   -4.562629   -1.164108
   8 C     6.0000    0    12.011    1.001794   -2.495388   -1.683615
   9 N     7.0000    0    14.007    1.577898   -1.714209   -4.107166
  10 C     6.0000    0    12.011   -0.898346   -5.324542    1.462530
  11 N     7.0000    0    14.007    0.433538   -3.861005    3.337603
  12 N     7.0000    0    14.007    1.481187   -1.470029    2.848120
  13 C     6.0000    0    12.011    2.148992   -0.855797    0.371287
  14 O     8.0000    0    15.999    3.376315    1.023088   -0.170436
  15 O     8.0000    0    15.999   -2.081777   -7.078144    2.328937
  16 O     8.0000    0    15.999   -3.075163   -7.797880   -2.927577
  17 Cl   17.0000    0    35.453    1.259166   -2.839143  -13.721402
  18 C     6.0000    0    12.011    2.762298   -0.221161    5.079170
  19 C     6.0000    0    12.011    1.716149    2.463364    5.297394
  20 C     6.0000    0    12.011   -0.867568    2.976073    4.921598
  21 C     6.0000    0    12.011   -1.724052    5.455681    5.223546
  22 C     6.0000    0    12.011   -0.017920    7.354569    5.897937
  23 C     6.0000    0    12.011    2.524892    6.691813    6.266965
  24 N     7.0000    0    14.007    3.387831    4.293371    5.984034
  25 C     6.0000    0    12.011    5.660164   -0.331424    4.853912
  26 C     6.0000    0    12.011    6.681495   -3.014263    5.016094
  27 H     1.0000    0     1.008   -2.977063   -8.226091   -7.598697
  28 H     1.0000    0     1.008    2.547362   -0.662576   -8.998668
  29 H     1.0000    0     1.008   -1.785546   -6.909067  -12.001132
  30 H     1.0000    0     1.008    2.670909   -0.122352   -4.353499
  31 H     1.0000    0     1.008   -0.018055   -4.184281    5.204860
  32 H     1.0000    0     1.008    2.174645   -1.257079    6.846599
  33 H     1.0000    0     1.008   -2.179239    1.482370    4.394557
  34 H     1.0000    0     1.008   -3.714576    5.904076    4.937710
  35 H     1.0000    0     1.008   -0.636733    9.299415    6.136092
  36 H     1.0000    0     1.008    3.943645    8.103321    6.806526
  37 H     1.0000    0     1.008    6.500551    0.848748    6.382141
  38 H     1.0000    0     1.008    6.274349    0.610227    3.075318
  39 H     1.0000    0     1.008    8.735884   -3.032147    4.722414
  40 H     1.0000    0     1.008    6.331230   -3.876056    6.867170
  41 H     1.0000    0     1.008    5.857308   -4.267776    3.585118

--------------------------------
INTERNAL COORDINATES (ANGSTROEM)
--------------------------------
 C      0   0   0     0.000000000000     0.00000000     0.00000000
 C      1   0   0     1.409871468473     0.00000000     0.00000000
 C      2   1   0     1.408781736257   118.91448879     0.00000000
 C      3   2   1     1.413161035265   121.27163814     0.22033995
 C      4   3   2     1.388213354795   117.55753999   359.51831570
 C      1   2   3     1.389082843066   120.76053758     0.11991288
 C      2   1   3     1.492323549157   119.00494263   179.82409338
 C      7   2   1     1.483734599059   114.08153379   176.59946446
 C      8   7   2     1.370414887107   120.76131540     4.49223959
 N      9   8   7     1.381520790006   123.39488120   357.59629869
 C      8   7   2     1.464978353706   119.36358812   184.71540063
 N     11   8   7     1.442603027033   115.40857265   176.25718677
 N     12  11   8     1.405453883750   123.31590310    17.60556510
 C     13  12  11     1.395859771369   118.85180303   334.78527105
 O     14  13  12     1.221699517767   122.98530409   190.28498227
 O     11   8   7     1.209756368481   130.61510622     0.96876125
 O      7   2   1     1.209636629098   121.30100007   356.22878181
 Cl     5   4   3     1.723164157770   118.68039950   180.56563616
 C     13  12  11     1.513345151414   115.21775313   178.93796155
 C     19  13  12     1.529013353312   107.60519094   230.30168466
 C     20  19  13     1.408017671906   121.32816003    40.58937962
 C     21  20  19     1.397387809629   118.66831569   178.04399616
 C     22  21  20     1.397214749311   119.66552477   359.68453677
 C     23  22  21     1.404197066044   118.36629702   359.62978444
 N     24  23  22     1.357134544766   122.72954833     0.31692773
 C     19  13  12     1.539216687882   111.67444528   104.87162476
 C     26  19  13     1.521515240351   112.63723933   293.82730543
 H      1   2   3     1.098199257014   118.32426298   180.10341474
 H      4   3   2     1.089284363419   121.48640144   179.68583642
 H      6   1   2     1.090256713959   120.83233845   179.84503256
 H     10   9   8     1.030111419095   119.08234584   178.95185660
 H     12  11   8     1.030889978867   117.18918323   171.66943015
 H     19  13  12     1.127813816338   108.13043510   345.33121353
 H     21  20  19     1.088279502773   121.03570519   357.65517617
 H     22  21  20     1.090278114215   120.12236060   179.80763942
 H     23  22  21     1.087336785294   121.04479252   179.72907745
 H     24  23  22     1.096858456546   121.46846220   180.29048228
 H     26  19  13     1.114359916623   108.67159724   171.81934317
 H     26  19  13     1.113453188928   109.83459972    58.36032100
 H     27  26  19     1.098228077594   110.59045868   176.23623119
 H     27  26  19     1.096285530089   112.24033634   295.48265342
 H     27  26  19     1.097104302952   112.58258999    56.73079228

---------------------------
INTERNAL COORDINATES (A.U.)
---------------------------
 C      0   0   0     0.000000000000     0.00000000     0.00000000
 C      1   0   0     2.664270959444     0.00000000     0.00000000
 C      2   1   0     2.662211663995   118.91448879     0.00000000
 C      3   2   1     2.670487339779   121.27163814     0.22033995
 C      4   3   2     2.623343056014   117.55753999   359.51831570
 C      1   2   3     2.624986150724   120.76053758     0.11991288
 C      2   1   3     2.820082811107   119.00494263   179.82409338
 C      7   2   1     2.803852047644   114.08153379   176.59946446
 C      8   7   2     2.589708826480   120.76131540     4.49223959
 N      9   8   7     2.610695941431   123.39488120   357.59629869
 C      8   7   2     2.768407880628   119.36358812   184.71540063
 N     11   8   7     2.726124641058   115.40857265   176.25718677
 N     12  11   8     2.655922934143   123.31590310    17.60556510
 C     13  12  11     2.637792689245   118.85180303   334.78527105
 O     14  13  12     2.308677506524   122.98530409   190.28498227
 O     11   8   7     2.286108225196   130.61510622     0.96876125
 O      7   2   1     2.285881950554   121.30100007   356.22878181
 Cl     5   4   3     3.256308341974   118.68039950   180.56563616
 C     13  12  11     2.859807882270   115.21775313   178.93796155
 C     19  13  12     2.889416492868   107.60519094   230.30168466
 C     20  19  13     2.660767791624   121.32816003    40.58937962
 C     21  20  19     2.640680263079   118.66831569   178.04399616
 C     22  21  20     2.640353226474   119.66552477   359.68453677
 C     23  22  21     2.653547892879   118.36629702   359.62978444
 N     24  23  22     2.564612616492   122.72954833     0.31692773
 C     19  13  12     2.908698000858   111.67444528   104.87162476
 C     26  19  13     2.875247112850   112.63723933   293.82730543
 H      1   2   3     2.075295836233   118.32426298   180.10341474
 H      4   3   2     2.058449128825   121.48640144   179.68583642
 H      6   1   2     2.060286605051   120.83233845   179.84503256
 H     10   9   8     1.946628469514   119.08234584   178.95185660
 H     12  11   8     1.948099734262   117.18918323   171.66943015
 H     19  13  12     2.131259242932   108.13043510   345.33121353
 H     21  20  19     2.056550217401   121.03570519   357.65517617
 H     22  21  20     2.060327045674   120.12236060   179.80763942
 H     23  22  21     2.054768739543   121.04479252   179.72907745
 H     24  23  22     2.072762090548   121.46846220   180.29048228
 H     26  19  13     2.105835057037   108.67159724   171.81934317
 H     26  19  13     2.104121590015   109.83459972    58.36032100
 H     27  26  19     2.075350299235   110.59045868   176.23623119
 H     27  26  19     2.071679416449   112.24033634   295.48265342
 H     27  26  19     2.073226672926   112.58258999    56.73079228

---------------------
BASIS SET INFORMATION
---------------------
There are 5 groups of distinct atoms

 Group   1 Type C   : 10s4p contracted to 3s2p pattern {631/31}
 Group   2 Type N   : 10s4p contracted to 3s2p pattern {631/31}
 Group   3 Type O   : 10s4p contracted to 3s2p pattern {631/31}
 Group   4 Type Cl  : 16s10p contracted to 4s3p pattern {6631/631}
 Group   5 Type H   : 4s contracted to 2s pattern {31}

Atom   0C    basis set group =>   1
Atom   1C    basis set group =>   1
Atom   2C    basis set group =>   1
Atom   3C    basis set group =>   1
Atom   4C    basis set group =>   1
Atom   5C    basis set group =>   1
Atom   6C    basis set group =>   1
Atom   7C    basis set group =>   1
Atom   8C    basis set group =>   1
Atom   9N    basis set group =>   2
Atom  10C    basis set group =>   1
Atom  11N    basis set group =>   2
Atom  12N    basis set group =>   2
Atom  13C    basis set group =>   1
Atom  14O    basis set group =>   3
Atom  15O    basis set group =>   3
Atom  16O    basis set group =>   3
Atom  17Cl   basis set group =>   4
Atom  18C    basis set group =>   1
Atom  19C    basis set group =>   1
Atom  20C    basis set group =>   1
Atom  21C    basis set group =>   1
Atom  22C    basis set group =>   1
Atom  23C    basis set group =>   1
Atom  24N    basis set group =>   2
Atom  25C    basis set group =>   1
Atom  26C    basis set group =>   1
Atom  27H    basis set group =>   5
Atom  28H    basis set group =>   5
Atom  29H    basis set group =>   5
Atom  30H    basis set group =>   5
Atom  31H    basis set group =>   5
Atom  32H    basis set group =>   5
Atom  33H    basis set group =>   5
Atom  34H    basis set group =>   5
Atom  35H    basis set group =>   5
Atom  36H    basis set group =>   5
Atom  37H    basis set group =>   5
Atom  38H    basis set group =>   5
Atom  39H    basis set group =>   5
Atom  40H    basis set group =>   5
Atom  41H    basis set group =>   5

-------------------------
BASIS SET IN INPUT FORMAT
-------------------------

 # Basis set for element : H 
 NewGTO H 
 S 3 
   1      18.7311370000      0.0334945995
   2       2.8253937000      0.2347269467
   3       0.6401217000      0.8137573184
 S 1 
   1       0.1612778000      1.0000000000
  end;

 # Basis set for element : C 
 NewGTO C 
 S 6 
   1    3047.5249000000      0.0018347002
   2     457.3695100000      0.0140373012
   3     103.9486900000      0.0688426061
   4      29.2101550000      0.2321844206
   5       9.2866630000      0.4679413416
   6       3.1639270000      0.3623120322
 S 3 
   1       7.8682724000     -0.1193324086
   2       1.8812885000     -0.1608542116
   3       0.5442493000      1.1434564826
 P 3 
   1       7.8682724000      0.0689990956
   2       1.8812885000      0.3164239798
   3       0.5442493000      0.7443082524
 S 1 
   1       0.1687144000      1.0000000000
 P 1 
   1       0.1687144000      1.0000000000
  end;

 # Basis set for element : N 
 NewGTO N 
 S 6 
   1    4173.5110000000      0.0018347994
   2     627.4579000000      0.0139949958
   3     142.9021000000      0.0685869792
   4      40.2343300000      0.2322409295
   5      12.8202100000      0.4690698576
   6       4.3904370000      0.3604548906
 S 3 
   1      11.6263580000     -0.1149610229
   2       2.7162800000     -0.1691180337
   3       0.7722180000      1.1458522281
 P 3 
   1      11.6263580000      0.0675800232
   2       2.7162800000      0.3239071114
   3       0.7722180000      0.7408952549
 S 1 
   1       0.2120313000      1.0000000000
 P 1 
   1       0.2120313000      1.0000000000
  end;

 # Basis set for element : O 
 NewGTO O 
 S 6 
   1    5484.6717000000      0.0018310998
   2     825.2349500000      0.0139500985
   3     188.0469600000      0.0684450927
   4      52.9645000000      0.2327142753
   5      16.8975700000      0.4701929501
   6       5.7996353000      0.3585208619
 S 3 
   1      15.5396160000     -0.1107775038
   2       3.5999336000     -0.1480263051
   3       1.0137618000      1.1307670390
 P 3 
   1      15.5396160000      0.0708742995
   2       3.5999336000      0.3397527978
   3       1.0137618000      0.7271585953
 S 1 
   1       0.2700058000      1.0000000000
 P 1 
   1       0.2700058000      1.0000000000
  end;

 # Basis set for element : Cl
 NewGTO Cl
 S 6 
   1   25180.1000000000      0.0018330003
   2    3780.3500000000      0.0140340024
   3     860.4740000000      0.0690970118
   4     242.1450000000      0.2374520404
   5      77.3349000000      0.4830340822
   6      26.2470000000      0.3398560578
 S 6 
   1     491.7650000000     -0.0022974020
   2     116.9840000000     -0.0307140266
   3      37.4153000000     -0.1125280974
   4      13.7834000000      0.0450160390
   5       5.4521500000      0.5893535102
   6       2.2258800000      0.4652064027
 P 6 
   1     491.7650000000      0.0039894005
   2     116.9840000000      0.0303180042
   3      37.4153000000      0.1298800178
   4      13.7834000000      0.3279510450
   5       5.4521500000      0.4535270623
   6       2.2258800000      0.2521540346
 S 3 
   1       3.1864900000     -0.2518312880
   2       1.1442700000      0.0615893150
   3       0.4203770000      1.0601854225
 P 3 
   1       3.1864900000     -0.0142990127
   2       1.1442700000      0.3235722877
   3       0.4203770000      0.7435076611
 S 1 
   1       0.1426570000      1.0000000000
 P 1 
   1       0.1426570000      1.0000000000
  end;



           ************************************************************
           *        Program running with 8 parallel MPI-processes     *
           *              working on a common directory               *
           ************************************************************
------------------------------------------------------------------------------
                           ORCA GTO INTEGRAL CALCULATION
------------------------------------------------------------------------------

                         BASIS SET STATISTICS AND STARTUP INFO

 # of primitive gaussian shells          ...  450
 # of primitive gaussian functions       ...  678
 # of contracted shells                  ...  167
 # of contracted basis functions         ...  277
 Highest angular momentum                ...    1
 Maximum contraction depth               ...    6
 Integral package used                   ... LIBINT
 Integral threshhold            Thresh   ...  1.000e-10
 Primitive cut-off              TCut     ...  1.000e-11


------------------------------ INTEGRAL EVALUATION ----------------------------


 * One electron integrals 
 Pre-screening matrix                    ... done
 Shell pair data                         ... done (   0.003 sec)



           ************************************************************
           *        Program running with 8 parallel MPI-processes     *
           *              working on a common directory               *
           ************************************************************
-------------------------------------------------------------------------------
                                 ORCA SCF
-------------------------------------------------------------------------------

------------
SCF SETTINGS
------------
Hamiltonian:
 Density Functional     Method          .... DFT(GTOs)
 Exchange Functional    Exchange        .... B88
   X-Alpha parameter    XAlpha          ....  0.666667
   Becke's b parameter  XBeta           ....  0.004200
 Correlation Functional Correlation     .... LYP
 LDA part of GGA corr.  LDAOpt          .... VWN-5
 Gradients option       PostSCFGGA      .... off
 Hybrid DFT is turned on
   Fraction HF Exchange ScalHFX         ....  0.200000
   Scaling of DF-GGA-X  ScalDFX         ....  0.720000
   Scaling of DF-GGA-C  ScalDFC         ....  0.810000
   Scaling of DF-LDA-C  ScalLDAC        ....  1.000000
   Perturbative correction              ....  0.000000
   NL short-range parameter             ....  4.800000


General Settings:
 Integral files         IntName         .... orca_orbitals
 Hartree-Fock type      HFTyp           .... RHF
 Total Charge           Charge          ....    0
 Multiplicity           Mult            ....    1
 Number of Electrons    NEL             ....  198
 Basis Dimension        Dim             ....  277
 Nuclear Repulsion      ENuc            ....   2483.8323187419 Eh

Convergence Acceleration:
 DIIS                   CNVDIIS         .... on
   Start iteration      DIISMaxIt       ....    12
   Startup error        DIISStart       ....  0.200000
   # of expansion vecs  DIISMaxEq       ....     5
   Bias factor          DIISBfac        ....   1.050
   Max. coefficient     DIISMaxC        ....  10.000
 Newton-Raphson         CNVNR           .... off
 SOSCF                  CNVSOSCF        .... on
   Start iteration      SOSCFMaxIt      ....   150
   Startup grad/error   SOSCFStart      ....  0.003300
 Level Shifting         CNVShift        .... on
   Level shift para.    LevelShift      ....    0.2500
   Turn off err/grad.   ShiftErr        ....    0.0010
 Zerner damping         CNVZerner       .... off
 Static damping         CNVDamp         .... on
   Fraction old density DampFac         ....    0.7000
   Max. Damping (<1)    DampMax         ....    0.9800
   Min. Damping (>=0)   DampMin         ....    0.0000
   Turn off err/grad.   DampErr         ....    0.1000
 Fernandez-Rico         CNVRico         .... off

SCF Procedure:
 Maximum # iterations   MaxIter         ....   125
 SCF integral mode      SCFMode         .... Direct
   Integral package                     .... LIBINT
 Reset frequeny         DirectResetFreq ....    20
 Integral Threshold     Thresh          ....  1.000e-10 Eh
 Primitive CutOff       TCut            ....  1.000e-11 Eh

Convergence Tolerance:
 Convergence Check Mode ConvCheckMode   .... Total+1el-Energy
 Convergence forced     ConvForced      .... 0
 Energy Change          TolE            ....  1.000e-06 Eh
 1-El. energy change                    ....  1.000e-03 Eh
 Orbital Gradient       TolG            ....  5.000e-05
 Orbital Rotation angle TolX            ....  5.000e-05
 DIIS Error             TolErr          ....  1.000e-06


Diagonalization of the overlap matrix:
Smallest eigenvalue                        ... 5.012e-04
Time for diagonalization                   ...    0.011 sec
Threshold for overlap eigenvalues          ... 1.000e-08
Number of eigenvalues below threshold      ... 0
Time for construction of square roots      ...    0.010 sec
Total time needed                          ...    0.022 sec

-------------------
DFT GRID GENERATION
-------------------

General Integration Accuracy     IntAcc      ...  4.340
Radial Grid Type                 RadialGrid  ... Gauss-Chebyshev
Angular Grid (max. acc.)         AngularGrid ... Lebedev-110
Angular grid pruning method      GridPruning ... 3 (G Style)
Weight generation scheme         WeightScheme... Becke
Basis function cutoff            BFCut       ...    1.0000e-10
Integration weight cutoff        WCut        ...    1.0000e-14
Grids for H and He will be reduced by one unit

# of grid points (after initial pruning)     ...  57174 (   0.0 sec)
# of grid points (after weights+screening)   ...  51101 (   0.2 sec)
nearest neighbour list constructed           ...    0.0 sec
Grid point re-assignment to atoms done       ...    0.0 sec
Grid point division into batches done        ...    0.0 sec
Reduced shell lists constructed in    0.1 sec

Total number of grid points                  ...    51101
Total number of batches                      ...      818
Average number of points per batch           ...       62
Average number of grid points per atom       ...     1217
Average number of shells per batch           ...    65.11 (38.99%)
Average number of basis functions per batch  ...   119.76 (43.23%)
Average number of large shells per batch     ...    46.20 (70.96%)
Average number of large basis fcns per batch ...    86.62 (72.33%)
Maximum spatial batch extension              ...  17.85, 12.39,  7.21 au
Average spatial batch extension              ...   0.40,  0.35,  0.26 au

Time for grid setup =    0.320 sec

------------------------------
INITIAL GUESS: MODEL POTENTIAL
------------------------------
Loading Hartree-Fock densities                     ... done
Calculating cut-offs                               ... done
Setting up the integral package                    ... done
Initializing the effective Hamiltonian             ... done
Starting the Coulomb interaction                   ... done (   0.1 sec)
Reading the grid                                   ... done
Mapping shells                                     ... done
Starting the XC term evaluation                    ... done (   0.1 sec)
  promolecular density results
     # of electrons  =    198.009572915
     EX              =   -180.548245708
     EC              =     -6.958442075
     EX+EC           =   -187.506687783
Transforming the Hamiltonian                       ... done (   0.0 sec)
Diagonalizing the Hamiltonian                      ... done (   0.0 sec)
Back transforming the eigenvectors                 ... done (   0.0 sec)
Now organizing SCF variables                       ... done
                      ------------------
                      INITIAL GUESS DONE (   0.7 sec)
                      ------------------
--------------
SCF ITERATIONS
--------------
ITER       Energy         Delta-E        Max-DP      RMS-DP      [F,P]     Damp
               ***  Starting incremental Fock matrix formation  ***
  0  -1636.1420205000   0.000000000000 0.29207318  0.00462732  0.2850022 0.7000
  1  -1636.4744350330  -0.332414533053 0.11273406  0.00237097  0.0918059 0.7000
                               ***Turning on DIIS***
  2  -1636.5793447354  -0.104909702362 0.06479996  0.00268376  0.0437736 0.0000
  3  -1636.7898872118  -0.210542476425 0.08404302  0.00163532  0.0487653 0.0000
  4  -1636.8171136591  -0.027226447284 0.03507002  0.00060713  0.0310671 0.0000
                      *** Initiating the SOSCF procedure ***
                           *** Shutting down DIIS ***
                      *** Re-Reading the Fockian *** 
                      *** Removing any level shift *** 
ITER      Energy       Delta-E        Grad      Rot      Max-DP    RMS-DP
  5  -1636.82323553  -0.0061218691  0.000812  0.000812  0.005881  0.000157
               *** Restarting incremental Fock matrix formation ***
  6  -1636.82342774  -0.0001922080  0.000678  0.004898  0.004547  0.000116
  7  -1636.82332383   0.0001039093  0.002231  0.004574  0.005122  0.000086
  8  -1636.82345664  -0.0001328135  0.000191  0.000826  0.001544  0.000037
  9  -1636.82344874   0.0000078966  0.000378  0.000529  0.000935  0.000024
 10  -1636.82345939  -0.0000106418  0.000074  0.000433  0.000233  0.000008
 11  -1636.82345910   0.0000002889  0.000125  0.000280  0.000179  0.000005
                  ***Gradient check signals convergence***
              ***Rediagonalizing the Fockian in SOSCF/NRSCF***

               *****************************************************
               *                     SUCCESS                       *
               *           SCF CONVERGED AFTER  12 CYCLES          *
               *****************************************************

Setting up the final grid:

General Integration Accuracy     IntAcc      ...  4.670
Radial Grid Type                 RadialGrid  ... Gauss-Chebyshev
Angular Grid (max. acc.)         AngularGrid ... Lebedev-302
Angular grid pruning method      GridPruning ... 3 (G Style)
Weight generation scheme         WeightScheme... Becke
Basis function cutoff            BFCut       ...    1.0000e-10
Integration weight cutoff        WCut        ...    1.0000e-14
Grids for H and He will be reduced by one unit

# of grid points (after initial pruning)     ... 219160 (   0.0 sec)
# of grid points (after weights+screening)   ... 191364 (   0.6 sec)
nearest neighbour list constructed           ...    0.0 sec
Grid point re-assignment to atoms done       ...    0.0 sec
Grid point division into batches done        ...    0.7 sec
Reduced shell lists constructed in    1.0 sec

Total number of grid points                  ...   191364
Total number of batches                      ...     3015
Average number of points per batch           ...       63
Average number of grid points per atom       ...     4556
Average number of shells per batch           ...    59.73 (35.77%)
Average number of basis functions per batch  ...   110.35 (39.84%)
Average number of large shells per batch     ...    42.54 (71.22%)
Average number of large basis fcns per batch ...    79.90 (72.41%)
Maximum spatial batch extension              ...  14.54, 11.91,  7.61 au
Average spatial batch extension              ...   0.22,  0.21,  0.18 au

Final grid set up in    1.7 sec
Final integration                            ... done (   0.4 sec)
Change in XC energy                          ...     0.000472564
Integrated number of electrons               ...   197.999917444
Previous integrated no of electrons          ...   198.008707205

----------------
TOTAL SCF ENERGY
----------------

Total Energy       :        -1636.82298698 Eh          -44540.21786 eV

Components:
Nuclear Repulsion  :         2483.83231874 Eh           67588.51353 eV
Electronic Energy  :        -4120.65530572 Eh         -112128.73138 eV
One Electron Energy:        -7172.89643471 Eh         -195184.43497 eV
Two Electron Energy:         3052.24112899 Eh           83055.70359 eV

Virial components:
Potential Energy   :        -3267.09978886 Eh          -88902.30496 eV
Kinetic Energy     :         1630.27680188 Eh           44362.08710 eV
Virial Ratio       :            2.00401538


DFT components:
N(Alpha)           :       98.999958722237 electrons
N(Beta)            :       98.999958722237 electrons
N(Total)           :      197.999917444475 electrons
E(X)               :     -145.020709394346 Eh       
E(C)               :       -8.171003392518 Eh       
E(XC)              :     -153.191712786864 Eh       

---------------
SCF CONVERGENCE
---------------

  Last Energy change         ...   -4.4654e-07  Tolerance :   1.0000e-06
  Last MAX-Density change    ...    1.4810e-04  Tolerance :   1.0000e-05
  Last RMS-Density change    ...    2.5449e-06  Tolerance :   1.0000e-06
  Last Orbital Gradient      ...    1.1194e-05  Tolerance :   5.0000e-05
  Last Orbital Rotation      ...    5.2720e-05  Tolerance :   5.0000e-05

             **** THE GBW FILE WAS UPDATED (orca_orbitals.gbw) ****
             **** DENSITY FILE WAS UPDATED (orca_orbitals.scfp.tmp) ****
             **** ENERGY FILE WAS UPDATED (orca_orbitals.en.tmp) ****
----------------
ORBITAL ENERGIES
----------------

  NO   OCC          E(Eh)            E(eV) 
   0   2.0000    -101.542307     -2763.1066 
   1   2.0000     -19.146402      -521.0001 
   2   2.0000     -19.124313      -520.3990 
   3   2.0000     -19.122535      -520.3506 
   4   2.0000     -14.431749      -392.7078 
   5   2.0000     -14.415896      -392.2765 
   6   2.0000     -14.403773      -391.9466 
   7   2.0000     -14.343589      -390.3089 
   8   2.0000     -10.328389      -281.0497 
   9   2.0000     -10.311486      -280.5898 
  10   2.0000     -10.289039      -279.9790 
  11   2.0000     -10.280514      -279.7470 
  12   2.0000     -10.274474      -279.5827 
  13   2.0000     -10.273333      -279.5516 
  14   2.0000     -10.263468      -279.2832 
  15   2.0000     -10.246320      -278.8165 
  16   2.0000     -10.234238      -278.4878 
  17   2.0000     -10.224991      -278.2361 
  18   2.0000     -10.224551      -278.2242 
  19   2.0000     -10.217006      -278.0189 
  20   2.0000     -10.216341      -278.0008 
  21   2.0000     -10.214381      -277.9474 
  22   2.0000     -10.213820      -277.9322 
  23   2.0000     -10.209888      -277.8252 
  24   2.0000     -10.208420      -277.7852 
  25   2.0000     -10.183673      -277.1118 
  26   2.0000     -10.172568      -276.8096 
  27   2.0000      -9.477306      -257.8906 
  28   2.0000      -7.240883      -197.0344 
  29   2.0000      -7.229669      -196.7293 
  30   2.0000      -7.229233      -196.7174 
  31   2.0000      -1.098527       -29.8924 
  32   2.0000      -1.075509       -29.2661 
  33   2.0000      -1.058286       -28.7974 
  34   2.0000      -1.025848       -27.9147 
  35   2.0000      -1.002823       -27.2882 
  36   2.0000      -0.959883       -26.1197 
  37   2.0000      -0.920812       -25.0566 
  38   2.0000      -0.866104       -23.5679 
  39   2.0000      -0.860869       -23.4254 
  40   2.0000      -0.837808       -22.7979 
  41   2.0000      -0.817866       -22.2553 
  42   2.0000      -0.802526       -21.8378 
  43   2.0000      -0.781299       -21.2602 
  44   2.0000      -0.772102       -21.0100 
  45   2.0000      -0.769271       -20.9329 
  46   2.0000      -0.721370       -19.6295 
  47   2.0000      -0.693121       -18.8608 
  48   2.0000      -0.680345       -18.5131 
  49   2.0000      -0.650305       -17.6957 
  50   2.0000      -0.644330       -17.5331 
  51   2.0000      -0.632487       -17.2109 
  52   2.0000      -0.626157       -17.0386 
  53   2.0000      -0.600755       -16.3474 
  54   2.0000      -0.594619       -16.1804 
  55   2.0000      -0.585802       -15.9405 
  56   2.0000      -0.561433       -15.2774 
  57   2.0000      -0.543348       -14.7852 
  58   2.0000      -0.535483       -14.5712 
  59   2.0000      -0.525788       -14.3074 
  60   2.0000      -0.510674       -13.8961 
  61   2.0000      -0.502113       -13.6632 
  62   2.0000      -0.489924       -13.3315 
  63   2.0000      -0.488004       -13.2793 
  64   2.0000      -0.480344       -13.0708 
  65   2.0000      -0.475134       -12.9291 
  66   2.0000      -0.463842       -12.6218 
  67   2.0000      -0.459036       -12.4910 
  68   2.0000      -0.456974       -12.4349 
  69   2.0000      -0.445165       -12.1135 
  70   2.0000      -0.438908       -11.9433 
  71   2.0000      -0.431877       -11.7520 
  72   2.0000      -0.428686       -11.6651 
  73   2.0000      -0.420522       -11.4430 
  74   2.0000      -0.420426       -11.4404 
  75   2.0000      -0.416751       -11.3404 
  76   2.0000      -0.410574       -11.1723 
  77   2.0000      -0.403085       -10.9685 
  78   2.0000      -0.397708       -10.8222 
  79   2.0000      -0.396531       -10.7902 
  80   2.0000      -0.387556       -10.5459 
  81   2.0000      -0.384282       -10.4568 
  82   2.0000      -0.381851       -10.3907 
  83   2.0000      -0.364674        -9.9233 
  84   2.0000      -0.356128        -9.6907 
  85   2.0000      -0.346564        -9.4305 
  86   2.0000      -0.342998        -9.3334 
  87   2.0000      -0.330453        -8.9921 
  88   2.0000      -0.327057        -8.8997 
  89   2.0000      -0.296739        -8.0747 
  90   2.0000      -0.293127        -7.9764 
  91   2.0000      -0.290359        -7.9011 
  92   2.0000      -0.275179        -7.4880 
  93   2.0000      -0.269188        -7.3250 
  94   2.0000      -0.264357        -7.1935 
  95   2.0000      -0.256788        -6.9876 
  96   2.0000      -0.240186        -6.5358 
  97   2.0000      -0.237713        -6.4685 
  98   2.0000      -0.221737        -6.0338 
  99   0.0000      -0.082388        -2.2419 
 100   0.0000      -0.052470        -1.4278 
 101   0.0000      -0.033564        -0.9133 
 102   0.0000      -0.027152        -0.7388 
 103   0.0000      -0.017587        -0.4786 
 104   0.0000       0.011737         0.3194 
 105   0.0000       0.032029         0.8716 
 106   0.0000       0.035160         0.9567 
 107   0.0000       0.054565         1.4848 
 108   0.0000       0.068340         1.8596 
 109   0.0000       0.089529         2.4362 
 110   0.0000       0.093710         2.5500 
 111   0.0000       0.106366         2.8944 
 112   0.0000       0.112151         3.0518 
 113   0.0000       0.116891         3.1808 
 114   0.0000       0.124816         3.3964 
 115   0.0000       0.131100         3.5674 
 116   0.0000       0.132097         3.5945 
 117   0.0000       0.138250         3.7620 
 118   0.0000       0.155979         4.2444 
 119   0.0000       0.158471         4.3122 
 120   0.0000       0.159572         4.3422 
 121   0.0000       0.166027         4.5178 
 122   0.0000       0.171189         4.6583 
 123   0.0000       0.172986         4.7072 
 124   0.0000       0.179860         4.8942 
 125   0.0000       0.185043         5.0353 
 126   0.0000       0.188245         5.1224 
 127   0.0000       0.194989         5.3059 
 128   0.0000       0.210094         5.7170 
 129   0.0000       0.213966         5.8223 
 130   0.0000       0.225399         6.1334 
 131   0.0000       0.228942         6.2298 
 132   0.0000       0.239786         6.5249 
 133   0.0000       0.242913         6.6100 
 134   0.0000       0.260415         7.0863 
 135   0.0000       0.261435         7.1140 
 136   0.0000       0.278977         7.5913 
 137   0.0000       0.287589         7.8257 
 138   0.0000       0.299273         8.1436 
 139   0.0000       0.305005         8.2996 
 140   0.0000       0.315430         8.5833 
 141   0.0000       0.316882         8.6228 
 142   0.0000       0.336363         9.1529 
 143   0.0000       0.344143         9.3646 
 144   0.0000       0.358589         9.7577 
 145   0.0000       0.366176         9.9642 
 146   0.0000       0.373279        10.1574 
 147   0.0000       0.387817        10.5530 
 148   0.0000       0.415872        11.3165 
 149   0.0000       0.424353        11.5472 
 150   0.0000       0.428119        11.6497 
 151   0.0000       0.432953        11.7812 
 152   0.0000       0.451079        12.2745 
 153   0.0000       0.464465        12.6387 
 154   0.0000       0.471842        12.8395 
 155   0.0000       0.487815        13.2741 
 156   0.0000       0.494655        13.4602 
 157   0.0000       0.500284        13.6134 
 158   0.0000       0.505269        13.7491 
 159   0.0000       0.511651        13.9227 
 160   0.0000       0.520290        14.1578 
 161   0.0000       0.522962        14.2305 
 162   0.0000       0.533697        14.5226 
 163   0.0000       0.536699        14.6043 
 164   0.0000       0.545924        14.8553 
 165   0.0000       0.560985        15.2652 
 166   0.0000       0.564112        15.3503 
 167   0.0000       0.565626        15.3915 
 168   0.0000       0.576426        15.6853 
 169   0.0000       0.582738        15.8571 
 170   0.0000       0.587784        15.9944 
 171   0.0000       0.590632        16.0719 
 172   0.0000       0.593938        16.1619 
 173   0.0000       0.596012        16.2183 
 174   0.0000       0.599506        16.3134 
 175   0.0000       0.603421        16.4199 
 176   0.0000       0.613943        16.7062 
 177   0.0000       0.615889        16.7592 
 178   0.0000       0.619726        16.8636 
 179   0.0000       0.626800        17.0561 
 180   0.0000       0.631662        17.1884 
 181   0.0000       0.635764        17.3000 
 182   0.0000       0.642812        17.4918 
 183   0.0000       0.643843        17.5198 
 184   0.0000       0.652616        17.7586 
 185   0.0000       0.660899        17.9840 
 186   0.0000       0.665197        18.1009 
 187   0.0000       0.673868        18.3369 
 188   0.0000       0.677723        18.4418 
 189   0.0000       0.685559        18.6550 
 190   0.0000       0.694321        18.8934 
 191   0.0000       0.708358        19.2754 
 192   0.0000       0.714152        19.4331 
 193   0.0000       0.715757        19.4767 
 194   0.0000       0.725803        19.7501 
 195   0.0000       0.753515        20.5042 
 196   0.0000       0.763005        20.7624 
 197   0.0000       0.774831        21.0842 
 198   0.0000       0.780772        21.2459 
 199   0.0000       0.792039        21.5525 
 200   0.0000       0.793201        21.5841 
 201   0.0000       0.808462        21.9994 
 202   0.0000       0.813850        22.1460 
 203   0.0000       0.819950        22.3120 
 204   0.0000       0.827250        22.5106 
 205   0.0000       0.833718        22.6866 
 206   0.0000       0.841664        22.9028 
 207   0.0000       0.846572        23.0364 
 208   0.0000       0.848236        23.0817 
 209   0.0000       0.854557        23.2537 
 210   0.0000       0.857918        23.3451 
 211   0.0000       0.870542        23.6887 
 212   0.0000       0.873069        23.7574 
 213   0.0000       0.881314        23.9818 
 214   0.0000       0.890310        24.2266 
 215   0.0000       0.893720        24.3194 
 216   0.0000       0.908109        24.7109 
 217   0.0000       0.912288        24.8246 
 218   0.0000       0.923071        25.1180 
 219   0.0000       0.936278        25.4774 
 220   0.0000       0.951229        25.8843 
 221   0.0000       0.952793        25.9268 
 222   0.0000       0.963708        26.2238 
 223   0.0000       0.968787        26.3620 
 224   0.0000       0.979486        26.6532 
 225   0.0000       0.983171        26.7534 
 226   0.0000       0.998005        27.1571 
 227   0.0000       1.005059        27.3491 
 228   0.0000       1.015475        27.6325 
 229   0.0000       1.029422        28.0120 
 230   0.0000       1.038309        28.2538 
 231   0.0000       1.044710        28.4280 
 232   0.0000       1.048773        28.5386 
 233   0.0000       1.061512        28.8852 
 234   0.0000       1.077693        29.3255 
 235   0.0000       1.078305        29.3422 
 236   0.0000       1.092876        29.7387 
 237   0.0000       1.104649        30.0590 
 238   0.0000       1.115411        30.3519 
 239   0.0000       1.117307        30.4035 
 240   0.0000       1.126493        30.6534 
 241   0.0000       1.142465        31.0880 
 242   0.0000       1.149203        31.2714 
 243   0.0000       1.160172        31.5699 
 244   0.0000       1.169091        31.8126 
 245   0.0000       1.183008        32.1913 
 246   0.0000       1.191590        32.4248 
 247   0.0000       1.208042        32.8725 
 248   0.0000       1.236328        33.6422 
 249   0.0000       1.266391        34.4602 
 250   0.0000       1.285324        34.9754 
 251   0.0000       1.294010        35.2118 
 252   0.0000       1.299634        35.3648 
 253   0.0000       1.324481        36.0410 
 254   0.0000       1.341070        36.4924 
 255   0.0000       1.375890        37.4399 
 256   0.0000       1.391736        37.8711 
 257   0.0000       1.417425        38.5701 
 258   0.0000       1.440381        39.1948 
 259   0.0000       1.445392        39.3311 
 260   0.0000       1.458304        39.6825 
 261   0.0000       1.465341        39.8739 
 262   0.0000       1.520175        41.3661 
 263   0.0000       1.529243        41.6128 
 264   0.0000       1.562019        42.5047 
 265   0.0000       1.606708        43.7207 
 266   0.0000       1.638269        44.5796 
 267   0.0000       1.663962        45.2787 
 268   0.0000       1.690037        45.9882 
 269   0.0000       1.780292        48.4442 
 270   0.0000       1.857157        50.5358 
 271   0.0000       1.860632        50.6304 
 272   0.0000       1.898000        51.6472 
 273   0.0000       1.929190        52.4959 
 274   0.0000       2.091974        56.9255 
 275   0.0000       2.131654        58.0052 
 276   0.0000       2.152463        58.5715 
------------------
MOLECULAR ORBITALS
------------------
                      0         1         2         3         4         5   
                 -101.54231 -19.14640 -19.12431 -19.12253 -14.43175 -14.41590
                   2.00000   2.00000   2.00000   2.00000   2.00000   2.00000
                  --------  --------  --------  --------  --------  --------
  0C   1s        -0.000022  0.000003  0.000026 -0.000000 -0.000007 -0.000001
  0C   2s        -0.000147  0.000017  0.000090 -0.000034 -0.000065  0.000149
  0C   1pz       -0.000011 -0.000022 -0.000256 -0.000120 -0.000015  0.000265
  0C   1px        0.000019 -0.000013 -0.000039  0.000022 -0.000005  0.000124
  0C   1py        0.000025 -0.000018 -0.000057  0.000011 -0.000009  0.000206
  0C   3s         0.003044 -0.000605 -0.008637 -0.001577  0.000344  0.008126
  0C   2pz       -0.000630  0.000522 -0.001211  0.000580 -0.000178  0.000138
  0C   2px        0.000736 -0.000404 -0.002462 -0.000470  0.000284  0.001702
  0C   2py        0.000972 -0.000524 -0.003615 -0.000585  0.000373  0.002340
  1C   1s         0.000003 -0.000006  0.000026  0.000012 -0.000007 -0.000065
  1C   2s         0.000014 -0.000057  0.000185  0.000068 -0.000030 -0.000455
  1C   1pz       -0.000043  0.000018  0.000269 -0.000028 -0.000015 -0.000315
  1C   1px        0.000003 -0.000023  0.000109  0.000042  0.000010  0.000043
  1C   1py        0.000002 -0.000030  0.000172  0.000063  0.000007  0.000046
  1C   3s        -0.000268  0.000454 -0.006194 -0.001833  0.000771  0.004705
  1C   2pz        0.001655 -0.002002 -0.011543 -0.001260  0.001128  0.013513
  1C   2px        0.000093  0.001211 -0.004341 -0.001268 -0.000548  0.001265
  1C   2py        0.000232  0.001514 -0.006388 -0.001764 -0.000648  0.002538
  2C   1s        -0.000019  0.000001  0.000001 -0.000014 -0.000006 -0.000074
  2C   2s        -0.000130 -0.000097  0.000241 -0.000133  0.000054  0.000039
  2C   1pz        0.000005 -0.000186  0.000141 -0.000067  0.000085  0.000380
  2C   1px       -0.000022 -0.000061 -0.000111 -0.000015  0.000041  0.000099
  2C   1py       -0.000033 -0.000086 -0.000129 -0.000012  0.000055  0.000162
  2C   3s         0.002431 -0.000975  0.004545  0.000868  0.001373 -0.009652
  2C   2pz       -0.002049  0.001424  0.004560  0.000676  0.000119 -0.020219
  2C   2px        0.000427  0.001406 -0.001335 -0.001045 -0.000076 -0.002474
  2C   2py        0.000477  0.001960 -0.001759 -0.001461 -0.000015 -0.004605
  3C   1s         0.000021 -0.000007  0.000001 -0.000005  0.000001  0.000066
  3C   2s         0.000128 -0.000052  0.000063 -0.000033 -0.000008  0.000452
  3C   1pz        0.000119 -0.000018  0.000040 -0.000015 -0.000010 -0.000250
  3C   1px       -0.000017 -0.000014 -0.000033 -0.000008  0.000002  0.000025
  3C   1py       -0.000013 -0.000018 -0.000046 -0.000016  0.000000  0.000007
  3C   3s        -0.003101  0.000501  0.002287  0.000733 -0.000245 -0.011278
  3C   2pz       -0.001675  0.000057  0.001167  0.000732 -0.000151 -0.000569
  3C   2px        0.001095 -0.000425 -0.000335  0.000117  0.000077  0.004114
  3C   2py        0.001401 -0.000566 -0.000307  0.000239  0.000080  0.005696
  4C   1s        -0.000006 -0.000002  0.000017  0.000003 -0.000004 -0.000012
  4C   2s        -0.000235 -0.000029  0.000127  0.000026 -0.000034 -0.000034
  4C   1pz       -0.000040 -0.000027  0.000046  0.000027 -0.000025  0.000217
  4C   1px        0.000015 -0.000006 -0.000002  0.000003  0.000004  0.000026
  4C   1py        0.000017 -0.000013  0.000009  0.000007  0.000008  0.000057
  4C   3s         0.002212 -0.000385 -0.001756 -0.000011  0.000209  0.005828
  4C   2pz        0.001769 -0.000069 -0.000678 -0.000143  0.000234  0.002026
  4C   2px       -0.000562  0.000023  0.000772  0.000224 -0.000109  0.000359
  4C   2py       -0.000644  0.000027  0.000963  0.000293 -0.000139  0.000642
  5C   1s         0.000018 -0.000003 -0.000020 -0.000012  0.000000  0.000034
  5C   2s         0.000112 -0.000017 -0.000086 -0.000088 -0.000008  0.000286
  5C   1pz        0.000112  0.000019  0.000148  0.000017 -0.000022  0.000065
  5C   1px       -0.000049 -0.000007 -0.000058 -0.000007 -0.000003  0.000049
  5C   1py       -0.000060 -0.000010 -0.000073 -0.000005 -0.000004  0.000068
  5C   3s        -0.002645  0.000701  0.003334  0.001315 -0.000450 -0.003199
  5C   2pz       -0.002102  0.000271  0.001162  0.000578 -0.000128 -0.002193
  5C   2px       -0.000206 -0.000011  0.000843  0.000045 -0.000048 -0.000454
  5C   2py       -0.000444  0.000013  0.001308  0.000092 -0.000079 -0.000767
  6C   1s         0.000007 -0.000022 -0.000439 -0.000066  0.000009  0.000125
  6C   2s         0.000047 -0.000247 -0.002204 -0.000363  0.000098  0.000772
  6C   1pz        0.000036 -0.000031  0.000048  0.000218 -0.000045  0.000060
  6C   1px       -0.000001 -0.000020 -0.000257  0.000013 -0.000010 -0.000154
  6C   1py        0.000001 -0.000038 -0.000325  0.000013  0.000007 -0.000218
  6C   3s        -0.001146 -0.000085  0.000745  0.009614  0.000520 -0.016728
  6C   2pz        0.000071 -0.002324 -0.003584  0.004021  0.002122  0.000918
  6C   2px       -0.000402  0.000358  0.015626  0.003114 -0.000320 -0.005027
  6C   2py       -0.000508  0.000491  0.019377  0.003951 -0.000433 -0.006100
  7C   1s        -0.000003  0.000033  0.000027 -0.000012 -0.000059 -0.000070
  7C   2s        -0.000023  0.000067  0.000164 -0.000088 -0.000388 -0.000450
  7C   1pz        0.000010  0.000017 -0.000334 -0.000262 -0.000036  0.000326
  7C   1px        0.000000 -0.000156  0.000099 -0.000265  0.000010  0.000087
  7C   1py       -0.000002 -0.000185  0.000133 -0.000380 -0.000012  0.000126
  7C   3s         0.000203 -0.010415 -0.007751  0.006656  0.009713  0.005364
  7C   2pz       -0.000402 -0.002507  0.014226  0.009519  0.001473 -0.014818
  7C   2px       -0.000207 -0.003863 -0.002844  0.008109  0.003905 -0.001075
  7C   2py       -0.000258 -0.005276 -0.004074  0.010790  0.005158 -0.001170
  8C   1s        -0.000004 -0.000080 -0.000004  0.000029  0.000075 -0.000095
  8C   2s        -0.000056 -0.000819  0.000212  0.000106  0.000558  0.000092
  8C   1pz        0.000034 -0.000254 -0.000106 -0.000202  0.000055 -0.000554
  8C   1px        0.000005  0.000070 -0.000132  0.000143 -0.000146  0.000074
  8C   1py        0.000006  0.000141 -0.000174  0.000189 -0.000285  0.000106
  8C   3s        -0.000127  0.008302  0.007107 -0.009524 -0.007416 -0.012037
  8C   2pz        0.000120  0.012690 -0.002606 -0.003393 -0.006457  0.021441
  8C   2px       -0.000176 -0.005230 -0.002355  0.002576  0.004572  0.000882
  8C   2py       -0.000253 -0.007637 -0.003465  0.003740  0.006819  0.001361
  9N   1s        -0.000003 -0.000055  0.000037 -0.000005  0.000115 -0.995533
  9N   2s        -0.000022 -0.000544  0.000337 -0.000092  0.000156 -0.035353
  9N   1pz       -0.000019 -0.000074  0.000001  0.000019 -0.000227 -0.000220
  9N   1px        0.000002  0.000033 -0.000020  0.000036 -0.000078  0.000522
  9N   1py        0.000003 -0.000006 -0.000028  0.000057 -0.000066  0.000718
  9N   3s         0.000365  0.006431 -0.003629 -0.000612 -0.003968  0.048162
  9N   2pz        0.000299  0.004025 -0.000126 -0.000727 -0.000294  0.002097
  9N   2px       -0.000162 -0.000753  0.001026 -0.000323  0.000531 -0.007371
  9N   2py       -0.000219 -0.000754  0.001515 -0.000511  0.000513 -0.010494
 10C   1s        -0.000001 -0.000029  0.000039  0.000372  0.000030  0.000001
 10C   2s        -0.000009 -0.000253  0.000224  0.001537  0.000024  0.000233
 10C   1pz       -0.000008 -0.000078  0.000259 -0.000036 -0.000106 -0.000306
 10C   1px       -0.000000 -0.000013 -0.000004  0.000168 -0.000099  0.000054
 10C   1py        0.000001  0.000015 -0.000004  0.000255 -0.000233  0.000109
 10C   3s         0.000141  0.002355 -0.007972  0.004673 -0.002618  0.007007
 10C   2pz        0.000020 -0.000740  0.004296  0.006044  0.000768 -0.002333
 10C   2px        0.000139  0.001299 -0.001542 -0.011814 -0.001810  0.000878
 10C   2py        0.000177  0.001885 -0.002651 -0.016846 -0.002048  0.001471
 11N   1s         0.000001  0.000009 -0.000012 -0.000074  0.000654  0.000349
 11N   2s         0.000011 -0.000125 -0.000095 -0.000861 -0.000788  0.000192
 11N   1pz        0.000001  0.000188 -0.000031  0.000140  0.000093 -0.000055
 11N   1px        0.000001 -0.000130 -0.000053  0.000059 -0.000037  0.000000
 11N   1py        0.000001 -0.000185 -0.000076  0.000053 -0.000146  0.000012
 11N   3s        -0.000106 -0.002822  0.001260  0.006089  0.007850 -0.001503
 11N   2pz        0.000039  0.000334 -0.000684 -0.004169 -0.002314  0.000638
 11N   2px        0.000028  0.000084  0.000310  0.000123  0.001640 -0.000054
 11N   2py        0.000037 -0.000736  0.000700  0.000970  0.003121 -0.000386
 12N   1s        -0.000000 -0.000068  0.000004  0.000026  0.995477  0.000070
 12N   2s         0.000001 -0.000846  0.000018  0.000104  0.034315 -0.000168
 12N   1pz       -0.000001  0.000272 -0.000007  0.000044 -0.000291 -0.000149
 12N   1px       -0.000002 -0.000014  0.000018  0.000160  0.000628 -0.000025
 12N   1py       -0.000003  0.000186  0.000003  0.000156 -0.000734 -0.000001
 12N   3s         0.000019  0.006847 -0.000326 -0.003436 -0.037534  0.003404
 12N   2pz        0.000005 -0.005147 -0.000308  0.000172  0.005300 -0.000540
 12N   2px        0.000024 -0.001516  0.000182 -0.000421 -0.002805  0.000051
 12N   2py        0.000032 -0.003871  0.000541  0.000606  0.001694 -0.000522
 13C   1s        -0.000002  0.000332  0.000009 -0.000023 -0.000014  0.000077
 13C   2s        -0.000018  0.001201  0.000143 -0.000175 -0.001210  0.000602
 13C   1pz       -0.000001 -0.000081 -0.000033 -0.000034 -0.000302  0.000015
 13C   1px        0.000002 -0.000160 -0.000030  0.000023  0.000102  0.000082
 13C   1py        0.000003 -0.000198 -0.000063 -0.000006  0.000060  0.000138
 13C   3s         0.000129  0.005603  0.001162  0.001633  0.012337 -0.007478
 13C   2pz       -0.000119 -0.006977 -0.000987  0.000997  0.012757 -0.000002
 13C   2px       -0.000042  0.012118  0.000157 -0.001136 -0.005068  0.004274
 13C   2py       -0.000061  0.017653  0.000203 -0.001706 -0.007066  0.006056
 14O   1s        -0.000000  0.995218 -0.000098  0.000202 -0.000035  0.000025
 14O   2s        -0.000003  0.031208  0.000061 -0.000120 -0.000768  0.000436
 14O   1pz       -0.000005  0.000534  0.000008 -0.000007  0.000096  0.000054
 14O   1px        0.000001 -0.001288  0.000002 -0.000005  0.000041  0.000010
 14O   1py        0.000001 -0.002050  0.000003  0.000000  0.000062  0.000007
 14O   3s         0.000011 -0.030435 -0.000485  0.000962  0.004548 -0.003194
 14O   2pz        0.000028 -0.001916 -0.000018  0.000054 -0.001558 -0.000733
 14O   2px       -0.000002  0.004505  0.000070 -0.000077 -0.000631  0.000280
 14O   2py       -0.000003  0.007254  0.000118 -0.000142 -0.001034  0.000530
 15O   1s        -0.000001 -0.000217  0.002572  0.995206  0.000001  0.000003
 15O   2s        -0.000016 -0.000141  0.000198  0.031113 -0.000045  0.000084
 15O   1pz       -0.000002 -0.000008  0.000058 -0.000874  0.000001 -0.000044
 15O   1px        0.000001  0.000019  0.000005  0.001308 -0.000073  0.000001
 15O   1py        0.000001  0.000006  0.000010  0.001970 -0.000032  0.000003
 15O   3s         0.000109  0.000971 -0.001212 -0.029696 -0.000683 -0.000120
 15O   2pz       -0.000017 -0.000036 -0.000487  0.003453  0.000130  0.000319
 15O   2px        0.000007  0.000025 -0.000221 -0.004210  0.000284 -0.000059
 15O   2py        0.000016  0.000104 -0.000267 -0.006477  0.000059 -0.000116
 16O   1s         0.000001 -0.000108 -0.995217  0.002559  0.000003  0.000013
 16O   2s         0.000017 -0.000074 -0.031286 -0.000016  0.000035  0.000243
 16O   1pz        0.000010 -0.000010  0.000407  0.000062  0.000009  0.000010
 16O   1px       -0.000002  0.000006 -0.001554  0.000002 -0.000014 -0.000028
 16O   1py       -0.000001  0.000015 -0.001855  0.000002 -0.000020 -0.000014
 16O   3s        -0.000172  0.000550  0.031026  0.000818 -0.000490 -0.001580
 16O   2pz       -0.000024  0.000183 -0.001203 -0.000799 -0.000188  0.000000
 16O   2px       -0.000009  0.000082  0.005480 -0.000021 -0.000053  0.000075
 16O   2py       -0.000011  0.000062  0.006486 -0.000024 -0.000041  0.000028
 17Cl  1s        -0.996489 -0.000000 -0.000001 -0.000002  0.000000  0.000003
 17Cl  2s        -0.012728 -0.000002 -0.000002 -0.000002 -0.000001  0.000020
 17Cl  1pz       -0.000118 -0.000001  0.000007  0.000005 -0.000003  0.000011
 17Cl  1px        0.000031  0.000001  0.000002 -0.000000  0.000000  0.000001
 17Cl  1py        0.000033  0.000000  0.000003  0.000000  0.000001  0.000002
 17Cl  3s         0.004612 -0.000020 -0.000038 -0.000052  0.000004  0.000140
 17Cl  2pz        0.000335  0.000001 -0.000042 -0.000032  0.000016 -0.000044
 17Cl  2px       -0.000086 -0.000002 -0.000007  0.000003 -0.000003 -0.000008
 17Cl  2py       -0.000091 -0.000001 -0.000011  0.000001 -0.000004 -0.000014
 17Cl  4s        -0.002242  0.000063 -0.000195 -0.000018  0.000104 -0.000379
 17Cl  3pz       -0.000366  0.000037 -0.000105 -0.000005  0.000053 -0.000299
 17Cl  3px        0.000092 -0.000011 -0.000005 -0.000008 -0.000013 -0.000000
 17Cl  3py        0.000099 -0.000015 -0.000009 -0.000011 -0.000009 -0.000024
 18C   1s        -0.000000 -0.000028  0.000002 -0.000032 -0.000039  0.000042
 18C   2s        -0.000004 -0.000201  0.000026 -0.000267 -0.000825  0.000368
 18C   1pz        0.000003 -0.000102  0.000001 -0.000008 -0.000123 -0.000037
 18C   1px       -0.000000 -0.000017  0.000001  0.000001 -0.000264  0.000030
 18C   1py       -0.000001 -0.000136  0.000010  0.000067 -0.000016  0.000054
 18C   3s        -0.000005  0.004129 -0.000149  0.000922  0.005450 -0.001221
 18C   2pz       -0.000000 -0.000947  0.000012 -0.000547 -0.003099  0.000621
 18C   2px        0.000010 -0.001548 -0.000185 -0.000284  0.000776 -0.000023
 18C   2py        0.000021  0.000018 -0.000226 -0.000835 -0.002473 -0.000205
 19C   1s        -0.000000  0.000035  0.000003  0.000002 -0.000033  0.000008
 19C   2s        -0.000002  0.000301  0.000036  0.000016 -0.000489  0.000131
 19C   1pz        0.000001 -0.000030 -0.000011 -0.000009  0.000046 -0.000051
 19C   1px        0.000001 -0.000047 -0.000012 -0.000044  0.000021  0.000011
 19C   1py        0.000000  0.000017 -0.000011 -0.000009  0.000315 -0.000021
 19C   3s         0.000005 -0.001881 -0.000050  0.000103  0.000571 -0.000146
 19C   2pz       -0.000002  0.000306  0.000086  0.000272  0.000344 -0.000008
 19C   2px       -0.000016 -0.000065  0.000364  0.000830 -0.000640  0.000110
 19C   2py        0.000008  0.000915  0.000024  0.000134 -0.001489 -0.000384
 20C   1s         0.000000  0.000014 -0.000001 -0.000005  0.000026  0.000001
 20C   2s        -0.000000  0.000226 -0.000001 -0.000027  0.000141  0.000024
 20C   1pz        0.000000 -0.000086 -0.000003 -0.000001  0.000101 -0.000008
 20C   1px       -0.000000  0.000053  0.000001  0.000017 -0.000168  0.000002
 20C   1py        0.000001 -0.000015 -0.000007 -0.000033  0.000220  0.000013
 20C   3s        -0.000013 -0.000505  0.000234  0.000749 -0.002643 -0.000046
 20C   2pz       -0.000003  0.000117  0.000035  0.000046 -0.000518  0.000030
 20C   2px       -0.000010  0.000178  0.000197  0.000278  0.000755  0.000187
 20C   2py       -0.000005 -0.000456 -0.000012  0.000105 -0.001191 -0.000052
 21C   1s        -0.000000 -0.000006  0.000001  0.000004 -0.000034 -0.000004
 21C   2s        -0.000000 -0.000052  0.000005  0.000040 -0.000321 -0.000035
 21C   1pz       -0.000000  0.000006  0.000001  0.000004 -0.000018 -0.000002
 21C   1px        0.000000 -0.000004  0.000002  0.000008 -0.000035 -0.000009
 21C   1py       -0.000000 -0.000005  0.000002  0.000003  0.000054  0.000007
 21C   3s         0.000006  0.000540 -0.000053 -0.000337  0.002531  0.000159
 21C   2pz        0.000001 -0.000117 -0.000027 -0.000035  0.000126 -0.000006
 21C   2px        0.000005  0.000135 -0.000087 -0.000241  0.000991  0.000072
 21C   2py        0.000001 -0.000314 -0.000046  0.000049 -0.001311 -0.000115
 22C   1s         0.000000  0.000001 -0.000001 -0.000001  0.000010 -0.000000
 22C   2s         0.000000  0.000014 -0.000004 -0.000011  0.000080 -0.000005
 22C   1pz        0.000000  0.000003 -0.000000 -0.000001  0.000020  0.000003
 22C   1px        0.000000  0.000014 -0.000002 -0.000009  0.000033  0.000001
 22C   1py       -0.000000 -0.000002 -0.000001 -0.000002 -0.000003  0.000005
 22C   3s        -0.000004  0.000005  0.000070  0.000163 -0.000945 -0.000017
 22C   2pz        0.000001  0.000033 -0.000015 -0.000026 -0.000026 -0.000011
 22C   2px        0.000000 -0.000110 -0.000029 -0.000008 -0.000566 -0.000030
 22C   2py        0.000003  0.000091 -0.000047 -0.000136  0.000885  0.000023
 23C   1s         0.000000  0.000002 -0.000000  0.000000 -0.000013 -0.000002
 23C   2s         0.000000  0.000026 -0.000001  0.000009 -0.000102 -0.000024
 23C   1pz       -0.000000  0.000005  0.000000  0.000002  0.000023  0.000002
 23C   1px       -0.000000 -0.000005  0.000000  0.000004 -0.000004 -0.000002
 23C   1py       -0.000000 -0.000007 -0.000001 -0.000012  0.000032  0.000018
 23C   3s         0.000002  0.000119 -0.000039 -0.000098  0.001228  0.000013
 23C   2pz        0.000000 -0.000036  0.000003 -0.000005 -0.000187  0.000009
 23C   2px        0.000000  0.000091 -0.000023 -0.000030 -0.000427 -0.000025
 23C   2py       -0.000000  0.000033  0.000035  0.000062 -0.000493 -0.000023
 24N   1s         0.000000 -0.000003  0.000001  0.000005 -0.000052 -0.000022
 24N   2s         0.000000 -0.000020  0.000013  0.000053 -0.000137 -0.000048
 24N   1pz        0.000000 -0.000032  0.000001 -0.000004 -0.000004  0.000009
 24N   1px        0.000000  0.000010  0.000001 -0.000003  0.000001  0.000004
 24N   1py       -0.000000  0.000007 -0.000002  0.000001  0.000044 -0.000002
 24N   3s         0.000000  0.000056 -0.000141 -0.000459  0.000592  0.000246
 24N   2pz       -0.000000  0.000025  0.000019  0.000062 -0.000253 -0.000068
 24N   2px        0.000001 -0.000023  0.000020  0.000112 -0.000123 -0.000117
 24N   2py       -0.000002 -0.000222  0.000105  0.000219 -0.000645 -0.000011
 25C   1s        -0.000000  0.000042 -0.000004  0.000004 -0.000014  0.000001
 25C   2s        -0.000004  0.000416 -0.000034  0.000016 -0.000408  0.000048
 25C   1pz        0.000001 -0.000156  0.000012  0.000019  0.000138 -0.000030
 25C   1px        0.000001 -0.000022 -0.000000  0.000035  0.000423 -0.000068
 25C   1py        0.000001 -0.000107  0.000002  0.000012  0.000209 -0.000029
 25C   3s         0.000006 -0.001003  0.000214 -0.000135 -0.001145  0.000259
 25C   2pz       -0.000007  0.001174 -0.000056  0.000053 -0.000100 -0.000008
 25C   2px       -0.000002  0.000305 -0.000094  0.000036  0.000330 -0.000030
 25C   2py       -0.000009  0.000649  0.000026  0.000037 -0.000857  0.000344
 26C   1s        -0.000000 -0.000013  0.000002  0.000006  0.000032 -0.000003
 26C   2s        -0.000001 -0.000060  0.000017  0.000059  0.000222 -0.000027
 26C   1pz        0.000000 -0.000052  0.000001  0.000010  0.000055 -0.000003
 26C   1px        0.000000 -0.000013 -0.000001 -0.000020  0.000103  0.000009
 26C   1py       -0.000000  0.000056 -0.000006  0.000017 -0.000008 -0.000013
 26C   3s        -0.000003  0.000703 -0.000073 -0.000093 -0.001130  0.000135
 26C   2pz        0.000002 -0.000244  0.000018 -0.000059 -0.000078  0.000006
 26C   2px        0.000000 -0.000328  0.000040  0.000151  0.000272 -0.000111
 26C   2py       -0.000004  0.000181  0.000023 -0.000028 -0.000265  0.000167
 27H   1s         0.000015 -0.000055 -0.000053 -0.000064  0.000034  0.000041
 27H   2s         0.000219 -0.000226 -0.000912 -0.000107  0.000192  0.000186
 28H   1s        -0.000144  0.000036 -0.000023 -0.000052  0.000016 -0.000384
 28H   2s        -0.000449  0.000257  0.000060 -0.000127 -0.000073 -0.001687
 29H   1s        -0.000159 -0.000010  0.000059 -0.000007  0.000001 -0.000079
 29H   2s        -0.000454  0.000021  0.000337  0.000096 -0.000007 -0.000613
 30H   1s         0.000028 -0.000185 -0.000040  0.000079 -0.000043  0.000682
 30H   2s         0.000121  0.000352 -0.000347  0.000182  0.000259 -0.000893
 31H   1s         0.000002  0.000141  0.000078  0.000322 -0.000069 -0.000006
 31H   2s         0.000002  0.000199 -0.000076  0.000452  0.000330 -0.000031
 32H   1s         0.000003 -0.000201 -0.000032 -0.000152 -0.000177  0.000035
 32H   2s         0.000004 -0.000315  0.000001  0.000065 -0.000371 -0.000185
 33H   1s        -0.000000 -0.000002 -0.000008  0.000007 -0.000154 -0.000014
 33H   2s        -0.000005  0.000085  0.000068  0.000014  0.000591  0.000125
 34H   1s         0.000000 -0.000008 -0.000006 -0.000011  0.000008  0.000001
 34H   2s         0.000001  0.000028 -0.000026 -0.000069  0.000311  0.000035
 35H   1s        -0.000000 -0.000015  0.000001  0.000007 -0.000073 -0.000004
 35H   2s        -0.000001 -0.000044  0.000009  0.000035 -0.000281 -0.000003
 36H   1s        -0.000000 -0.000016  0.000001  0.000003  0.000007  0.000000
 36H   2s        -0.000000 -0.000046  0.000001 -0.000001  0.000199  0.000024
 37H   1s         0.000001 -0.000070 -0.000006 -0.000002  0.000032 -0.000033
 37H   2s         0.000004 -0.000477  0.000018  0.000046  0.000708 -0.000131
 38H   1s        -0.000001  0.000046 -0.000010  0.000006 -0.000033  0.000007
 38H   2s         0.000000  0.000268 -0.000052  0.000054  0.000118 -0.000315
 39H   1s         0.000000 -0.000011  0.000000 -0.000007  0.000019 -0.000002
 39H   2s         0.000000  0.000082 -0.000005 -0.000082  0.000006  0.000057
 40H   1s        -0.000000 -0.000005  0.000005  0.000020  0.000133 -0.000004
 40H   2s        -0.000001  0.000001  0.000009  0.000046  0.000008  0.000004
 41H   1s         0.000001 -0.000039 -0.000002  0.000014 -0.000021 -0.000042
 41H   2s        -0.000003 -0.000118  0.000061  0.000004  0.000197  0.000143
                      6         7         8         9        10        11   
                 -14.40377 -14.34359 -10.32839 -10.31149 -10.28904 -10.28051
                   2.00000   2.00000   2.00000   2.00000   2.00000   2.00000
                  --------  --------  --------  --------  --------  --------
  0C   1s        -0.000014  0.000000  0.000021 -0.000038  0.000039  0.000002
  0C   2s        -0.000102  0.000003  0.000091 -0.000185  0.000037  0.000182
  0C   1pz        0.000016 -0.000002  0.000047 -0.000039  0.000174 -0.000133
  0C   1px       -0.000001  0.000001  0.000009  0.000032  0.000039 -0.000046
  0C   1py        0.000006  0.000002  0.000016  0.000042  0.000079 -0.000105
  0C   3s         0.001792 -0.000038  0.000266  0.002160  0.006321 -0.006429
  0C   2pz       -0.000462  0.000087 -0.000517  0.000596  0.001839 -0.002874
  0C   2px        0.000862 -0.000041  0.000083  0.000841  0.000687 -0.000818
  0C   2py        0.001148 -0.000043  0.000069  0.001184  0.001113 -0.001301
  1C   1s        -0.000026  0.000003 -0.000007 -0.000059 -0.000084 -0.001215
  1C   2s        -0.000202  0.000017 -0.000032 -0.000305 -0.000424  0.002098
  1C   1pz       -0.000113 -0.000000  0.000058 -0.000211 -0.000076  0.000881
  1C   1px        0.000027  0.000000  0.000024  0.000036 -0.000086  0.000032
  1C   1py        0.000026  0.000003  0.000037  0.000018 -0.000105  0.000119
  1C   3s         0.002250 -0.000285  0.002218  0.001091  0.007721 -0.021062
  1C   2pz        0.003957 -0.000205  0.001409  0.005075  0.005200 -0.013867
  1C   2px       -0.000682  0.000082 -0.000021 -0.001156  0.006151 -0.005513
  1C   2py       -0.000718  0.000075  0.000085 -0.001146  0.008567 -0.008321
  2C   1s        -0.000011  0.000003 -0.000038 -0.000160  0.000220  0.000910
  2C   2s        -0.000072  0.000035  0.000047 -0.000272  0.000397 -0.000122
  2C   1pz        0.000064  0.000025  0.000043 -0.000099  0.000431  0.000263
  2C   1px        0.000016  0.000001 -0.000038  0.000006 -0.000183 -0.000130
  2C   1py        0.000022  0.000005 -0.000046  0.000013 -0.000254 -0.000105
  2C   3s         0.001711  0.000008 -0.001063  0.000631 -0.003836  0.010959
  2C   2pz       -0.001685 -0.000069 -0.002640 -0.002417 -0.011737  0.004205
  2C   2px       -0.000078  0.000029  0.000136 -0.001128  0.006157 -0.004022
  2C   2py       -0.000200  0.000046  0.000026 -0.001774  0.008010 -0.005596
  3C   1s         0.000008  0.000001  0.000009 -0.000019  0.000070  0.000122
  3C   2s         0.000033  0.000011  0.000061 -0.000049  0.000486  0.000384
  3C   1pz       -0.000049  0.000001 -0.000016 -0.000072 -0.000307 -0.000007
  3C   1px        0.000015  0.000001  0.000012  0.000019 -0.000037 -0.000055
  3C   1py        0.000020 -0.000001  0.000017  0.000017 -0.000063 -0.000093
  3C   3s        -0.001699 -0.000064 -0.001416 -0.001256 -0.011366 -0.000229
  3C   2pz       -0.000413 -0.000066 -0.000708  0.000292 -0.004423  0.002023
  3C   2px        0.000417  0.000010  0.000312  0.000620  0.002013  0.001415
  3C   2py        0.000544  0.000011  0.000382  0.000917  0.002413  0.002242
  4C   1s        -0.000010  0.000000  0.000007 -0.000018 -0.000256  0.000159
  4C   2s        -0.000078  0.000003  0.000026 -0.000057 -0.000337  0.000073
  4C   1pz       -0.000030  0.000004  0.000021 -0.000002 -0.000037  0.000125
  4C   1px        0.000014  0.000000  0.000008  0.000011  0.000037 -0.000013
  4C   1py        0.000015  0.000001  0.000013  0.000018  0.000044 -0.000005
  4C   3s         0.000926  0.000003  0.000054  0.001239  0.003873  0.001791
  4C   2pz        0.000629 -0.000022 -0.000002  0.000541  0.002346  0.000809
  4C   2px       -0.000191 -0.000016 -0.000060 -0.000027 -0.001046  0.000818
  4C   2py       -0.000212 -0.000025 -0.000084 -0.000013 -0.001238  0.001164
  5C   1s         0.000005  0.000000  0.000005 -0.000011  0.000080  0.000000
  5C   2s         0.000011  0.000004  0.000026 -0.000048  0.000297  0.000082
  5C   1pz       -0.000050  0.000004  0.000002 -0.000047  0.000082  0.000053
  5C   1px        0.000005  0.000000 -0.000001  0.000010 -0.000009 -0.000035
  5C   1py        0.000001  0.000000 -0.000001  0.000011 -0.000010 -0.000039
  5C   3s        -0.001392  0.000050 -0.000492 -0.000523 -0.002942 -0.000027
  5C   2pz       -0.000541  0.000029 -0.000163 -0.000167 -0.001387 -0.000908
  5C   2px       -0.000132 -0.000022  0.000077 -0.000246 -0.001050  0.000432
  5C   2py       -0.000215 -0.000029  0.000097 -0.000345 -0.001563  0.000511
  6C   1s         0.000025 -0.000004  0.000171 -0.000128  0.000765 -0.995381
  6C   2s         0.000063 -0.000021  0.000495 -0.000291  0.000914 -0.037707
  6C   1pz       -0.000371  0.000023  0.000019 -0.000251  0.000193 -0.000138
  6C   1px        0.000031  0.000009  0.000015  0.000050 -0.000086  0.000493
  6C   1py        0.000013  0.000015  0.000014  0.000076 -0.000095  0.000580
  6C   3s        -0.005671  0.000616 -0.002531  0.002799 -0.012084  0.035753
  6C   2pz        0.002201 -0.000174  0.000558  0.006244 -0.005928 -0.003311
  6C   2px       -0.002009  0.000237 -0.001527  0.000696 -0.004582  0.014943
  6C   2py       -0.002216  0.000334 -0.002028  0.001076 -0.005825  0.018791
  7C   1s         0.000040 -0.000003  0.000013  0.001196 -0.004279 -0.001621
  7C   2s         0.000220 -0.000018  0.000003 -0.002108  0.002246  0.002076
  7C   1pz       -0.000105 -0.000028  0.000142 -0.001089  0.000181 -0.000967
  7C   1px        0.000076  0.000002  0.000198 -0.000056  0.000821 -0.000122
  7C   1py        0.000224  0.000014  0.000235 -0.000002  0.001130 -0.000127
  7C   3s        -0.005058  0.000359  0.005922  0.018944 -0.016855 -0.022227
  7C   2pz       -0.003941  0.001409 -0.000896  0.014183 -0.012314  0.019129
  7C   2px       -0.003399 -0.000044  0.001066  0.004505 -0.010756 -0.003505
  7C   2py       -0.005006 -0.000257  0.001867  0.005112 -0.014356 -0.005367
  8C   1s        -0.000040  0.000010 -0.001531 -0.000035 -0.995302 -0.000685
  8C   2s        -0.000365  0.000085  0.001882 -0.000007 -0.036878 -0.000102
  8C   1pz       -0.000031  0.000030  0.000692 -0.000164  0.000348 -0.000177
  8C   1px       -0.000035  0.000034  0.000289  0.000190  0.000086 -0.000161
  8C   1py       -0.000009  0.000024  0.000403  0.000223  0.000133 -0.000152
  8C   3s         0.005332 -0.000670 -0.014373 -0.007981  0.036028  0.013217
  8C   2pz        0.002285 -0.001259 -0.008681 -0.003602  0.018681 -0.002019
  8C   2px       -0.001628 -0.000615  0.000008  0.001412 -0.005930 -0.005233
  8C   2py       -0.002138 -0.000680 -0.000097  0.002566 -0.008398 -0.007627
  9N   1s         0.000316 -0.000014  0.000025 -0.000032 -0.000121  0.000018
  9N   2s        -0.000154  0.000051  0.000290 -0.000379 -0.000754  0.000179
  9N   1pz       -0.000102  0.000009  0.000155  0.000004  0.000362  0.000008
  9N   1px       -0.000012 -0.000000  0.000065  0.000071 -0.000007 -0.000026
  9N   1py       -0.000042  0.000002  0.000097  0.000097 -0.000024 -0.000038
  9N   3s         0.001541 -0.000393 -0.001312  0.001420  0.010008 -0.002287
  9N   2pz        0.000700 -0.000116 -0.001860 -0.001000  0.005829 -0.000338
  9N   2px        0.000104  0.000156 -0.000451 -0.000859 -0.003125  0.001477
  9N   2py        0.000199  0.000172 -0.000690 -0.001346 -0.004225  0.002188
 10C   1s        -0.000066  0.000014  0.000381  0.995232 -0.000076 -0.000040
 10C   2s        -0.001491  0.000080  0.000157  0.035966 -0.000049  0.000426
 10C   1pz       -0.000373 -0.000022  0.000055  0.000405 -0.000336  0.000063
[...]
      px      :     0.907608
      py      :     0.821038
 20 C s       :     3.186255  s :     3.186255
      pz      :     1.001248  p :     2.906487
      px      :     0.938048
      py      :     0.967190
 21 C s       :     3.216051  s :     3.216051
      pz      :     0.954625  p :     2.908438
      px      :     1.023343
      py      :     0.930469
 22 C s       :     3.198122  s :     3.198122
      pz      :     0.994238  p :     2.906213
      px      :     0.916367
      py      :     0.995607
 23 C s       :     3.159175  s :     3.159175
      pz      :     0.960906  p :     2.831762
      px      :     0.996943
      py      :     0.873914
 24 N s       :     3.810373  s :     3.810373
      pz      :     1.131037  p :     3.599223
      px      :     1.481036
      py      :     0.987150
 25 C s       :     3.309695  s :     3.309695
      pz      :     1.115451  p :     2.925824
      px      :     0.868267
      py      :     0.942106
 26 C s       :     3.326897  s :     3.326897
      pz      :     1.063613  p :     3.098372
      px      :     1.064853
      py      :     0.969906
 27 H s       :     0.811493  s :     0.811493
 28 H s       :     0.830542  s :     0.830542
 29 H s       :     0.835178  s :     0.835178
 30 H s       :     0.641682  s :     0.641682
 31 H s       :     0.657638  s :     0.657638
 32 H s       :     0.837401  s :     0.837401
 33 H s       :     0.851598  s :     0.851598
 34 H s       :     0.853998  s :     0.853998
 35 H s       :     0.859270  s :     0.859270
 36 H s       :     0.848774  s :     0.848774
 37 H s       :     0.830320  s :     0.830320
 38 H s       :     0.814632  s :     0.814632
 39 H s       :     0.854930  s :     0.854930
 40 H s       :     0.871086  s :     0.871086
 41 H s       :     0.856920  s :     0.856920


                     *******************************
                     * LOEWDIN POPULATION ANALYSIS *
                     *******************************

----------------------
LOEWDIN ATOMIC CHARGES
----------------------
   0 C :   -0.061893
   1 C :   -0.085824
   2 C :    0.082958
   3 C :   -0.146581
   4 C :   -0.095681
   5 C :   -0.124746
   6 C :    0.168234
   7 C :   -0.140740
   8 C :    0.065830
   9 N :   -0.172041
  10 C :    0.209739
  11 N :   -0.205177
  12 N :   -0.076009
  13 C :    0.182285
  14 O :   -0.309779
  15 O :   -0.266034
  16 O :   -0.241906
  17 Cl:    0.075755
  18 C :    0.007707
  19 C :    0.039528
  20 C :   -0.131719
  21 C :   -0.084796
  22 C :   -0.133943
  23 C :   -0.033050
  24 N :   -0.160877
  25 C :   -0.201757
  26 C :   -0.322810
  27 H :    0.149992
  28 H :    0.138427
  29 H :    0.138341
  30 H :    0.268025
  31 H :    0.249459
  32 H :    0.123001
  33 H :    0.128685
  34 H :    0.126103
  35 H :    0.127185
  36 H :    0.121790
  37 H :    0.130414
  38 H :    0.134478
  39 H :    0.115423
  40 H :    0.103187
  41 H :    0.108817

-------------------------------
LOEWDIN REDUCED ORBITAL CHARGES
-------------------------------
  0 C s       :     2.943989  s :     2.943989
      pz      :     1.061051  p :     3.117903
      px      :     1.000407
      py      :     1.056446
  1 C s       :     2.917364  s :     2.917364
      pz      :     1.078476  p :     3.168460
      px      :     1.042559
      py      :     1.047426
  2 C s       :     2.885944  s :     2.885944
      pz      :     0.994377  p :     3.031098
      px      :     1.011754
      py      :     1.024967
  3 C s       :     2.938715  s :     2.938715
      pz      :     1.045861  p :     3.207866
      px      :     1.076035
      py      :     1.085970
  4 C s       :     2.953007  s :     2.953007
      pz      :     0.990007  p :     3.142674
      px      :     1.060463
      py      :     1.092204
  5 C s       :     2.943274  s :     2.943274
      pz      :     1.103187  p :     3.181472
      px      :     1.032816
      py      :     1.045469
  6 C s       :     2.898049  s :     2.898049
      pz      :     1.042348  p :     2.933717
      px      :     0.931471
      py      :     0.959899
  7 C s       :     2.923095  s :     2.923095
      pz      :     1.072262  p :     3.217645
      px      :     1.077713
      py      :     1.067670
  8 C s       :     2.907061  s :     2.907061
      pz      :     0.976949  p :     3.027109
      px      :     1.001482
      py      :     1.048677
  9 N s       :     3.151056  s :     3.151056
      pz      :     1.184692  p :     4.020985
      px      :     1.485075
      py      :     1.351217
 10 C s       :     2.885621  s :     2.885621
      pz      :     1.024799  p :     2.904640
      px      :     0.920761
      py      :     0.959079
 11 N s       :     3.219625  s :     3.219625
      pz      :     1.227144  p :     3.985552
      px      :     1.550622
      py      :     1.207786
 12 N s       :     3.182194  s :     3.182194
      pz      :     1.213539  p :     3.893815
      px      :     1.468241
      py      :     1.212035
 13 C s       :     2.883090  s :     2.883090
      pz      :     0.982116  p :     2.934625
      px      :     0.952962
      py      :     0.999547
 14 O s       :     3.620236  s :     3.620236
      pz      :     1.774327  p :     4.689543
      px      :     1.462502
      py      :     1.452714
 15 O s       :     3.616524  s :     3.616524
      pz      :     1.736533  p :     4.649509
      px      :     1.452341
      py      :     1.460635
 16 O s       :     3.615154  s :     3.615154
      pz      :     1.826090  p :     4.626753
      px      :     1.390223
      py      :     1.410439
 17 Cls       :     5.808773  s :     5.808773
      pz      :     3.344915  p :    11.115472
      px      :     3.884656
      py      :     3.885901
 18 C s       :     2.946638  s :     2.946638
      pz      :     0.943224  p :     3.045655
      px      :     1.064319
      py      :     1.038112
 19 C s       :     2.917818  s :     2.917818
      pz      :     0.965303  p :     3.042654
      px      :     1.058263
      py      :     1.019088
 20 C s       :     2.949123  s :     2.949123
      pz      :     1.013255  p :     3.182596
      px      :     1.077963
      py      :     1.091378
 21 C s       :     2.947566  s :     2.947566
      pz      :     0.962443  p :     3.137230
      px      :     1.095458
      py      :     1.079328
 22 C s       :     2.953862  s :     2.953862
      pz      :     1.005146  p :     3.180081
      px      :     1.080983
      py      :     1.093952
 23 C s       :     2.948656  s :     2.948656
      pz      :     0.968710  p :     3.084395
      px      :     1.085743
      py      :     1.029942
 24 N s       :     3.311688  s :     3.311688
      pz      :     1.141807  p :     3.849189
      px      :     1.563667
      py      :     1.143716
 25 C s       :     2.962331  s :     2.962331
      pz      :     1.155743  p :     3.239426
      px      :     1.008859
      py      :     1.074824
 26 C s       :     2.986512  s :     2.986512
      pz      :     1.129709  p :     3.336298
      px      :     1.127390
      py      :     1.079199
 27 H s       :     0.850008  s :     0.850008
 28 H s       :     0.861573  s :     0.861573
 29 H s       :     0.861659  s :     0.861659
 30 H s       :     0.731975  s :     0.731975
 31 H s       :     0.750541  s :     0.750541
 32 H s       :     0.876999  s :     0.876999
 33 H s       :     0.871315  s :     0.871315
 34 H s       :     0.873897  s :     0.873897
 35 H s       :     0.872815  s :     0.872815
 36 H s       :     0.878210  s :     0.878210
 37 H s       :     0.869586  s :     0.869586
 38 H s       :     0.865522  s :     0.865522
 39 H s       :     0.884577  s :     0.884577
 40 H s       :     0.896813  s :     0.896813
 41 H s       :     0.891183  s :     0.891183


                      *****************************
                      * MAYER POPULATION ANALYSIS *
                      *****************************

  NA   - Mulliken gross atomic population
  ZA   - Total nuclear charge
  QA   - Mulliken gross atomic charge
  VA   - Mayer's total valence
  BVA  - Mayer's bonded valence
  FA   - Mayer's free valence

  ATOM       NA         ZA         QA         VA         BVA        FA
  0 C      6.1611     6.0000    -0.1611     3.9016     3.9016     0.0000
  1 C      5.9590     6.0000     0.0410     3.7113     3.7113    -0.0000
  2 C      5.6677     6.0000     0.3323     3.6550     3.6550    -0.0000
  3 C      6.0816     6.0000    -0.0816     3.8178     3.8178     0.0000
  4 C      6.3222     6.0000    -0.3222     3.9768     3.9768    -0.0000
  5 C      6.0755     6.0000    -0.0755     3.8058     3.8058    -0.0000
  6 C      5.7777     6.0000     0.2223     3.8886     3.8886     0.0000
  7 C      5.9413     6.0000     0.0587     3.4233     3.4233     0.0000
  8 C      5.6910     6.0000     0.3090     3.4847     3.4847    -0.0000
  9 N      7.8560     7.0000    -0.8560     2.8181     2.8181    -0.0000
 10 C      5.5780     6.0000     0.4220     3.8154     3.8154     0.0000
 11 N      7.4848     7.0000    -0.4848     2.6556     2.6556    -0.0000
 12 N      7.4066     7.0000    -0.4066     2.6950     2.6950    -0.0000
 13 C      5.4913     6.0000     0.5087     3.7266     3.7266    -0.0000
 14 O      8.4410     8.0000    -0.4410     2.0610     2.0610    -0.0000
 15 O      8.3801     8.0000    -0.3801     2.1371     2.1371     0.0000
 16 O      8.3618     8.0000    -0.3618     2.1278     2.1278     0.0000
 17 Cl    16.8583    17.0000     0.1417     1.1296     1.1296     0.0000
 18 C      6.0423     6.0000    -0.0423     3.5782     3.5782    -0.0000
 19 C      5.7843     6.0000     0.2157     3.7669     3.7669    -0.0000
 20 C      6.0927     6.0000    -0.0927     3.7878     3.7878     0.0000
 21 C      6.1245     6.0000    -0.1245     3.8961     3.8961    -0.0000
 22 C      6.1043     6.0000    -0.1043     3.8277     3.8277    -0.0000
 23 C      5.9909     6.0000     0.0091     3.8318     3.8318    -0.0000
 24 N      7.4096     7.0000    -0.4096     2.8589     2.8589     0.0000
 25 C      6.2355     6.0000    -0.2355     3.7282     3.7282     0.0000
 26 C      6.4253     6.0000    -0.4253     3.7950     3.7950     0.0000
 27 H      0.8115     1.0000     0.1885     0.9423     0.9423    -0.0000
 28 H      0.8305     1.0000     0.1695     0.9374     0.9374    -0.0000
 29 H      0.8352     1.0000     0.1648     0.9429     0.9429    -0.0000
 30 H      0.6417     1.0000     0.3583     0.8723     0.8723     0.0000
 31 H      0.6576     1.0000     0.3424     0.8692     0.8692    -0.0000
 32 H      0.8374     1.0000     0.1626     0.9355     0.9355    -0.0000
 33 H      0.8516     1.0000     0.1484     0.9421     0.9421    -0.0000
 34 H      0.8540     1.0000     0.1460     0.9403     0.9403    -0.0000
 35 H      0.8593     1.0000     0.1407     0.9437     0.9437    -0.0000
 36 H      0.8488     1.0000     0.1512     0.9346     0.9346    -0.0000
 37 H      0.8303     1.0000     0.1697     0.9417     0.9417     0.0000
 38 H      0.8146     1.0000     0.1854     0.9426     0.9426     0.0000
 39 H      0.8549     1.0000     0.1451     0.9362     0.9362     0.0000
 40 H      0.8711     1.0000     0.1289     0.9375     0.9375     0.0000
 41 H      0.8569     1.0000     0.1431     0.9357     0.9357     0.0000

  Mayer bond orders larger than 0.1
B(  0-C ,  1-C ) :   1.3515 B(  0-C ,  5-C ) :   1.4663 B(  0-C , 27-H ) :   0.9046 
B(  1-C ,  2-C ) :   1.3431 B(  1-C ,  6-C ) :   0.9109 B(  2-C ,  3-C ) :   1.3497 
B(  2-C ,  9-N ) :   0.8216 B(  3-C ,  4-C ) :   1.4358 B(  3-C , 28-H ) :   0.9145 
B(  4-C ,  5-C ) :   1.3357 B(  4-C , 17-Cl) :   1.0877 B(  5-C , 29-H ) :   0.9245 
B(  6-C ,  7-C ) :   0.9055 B(  6-C , 16-O ) :   1.9546 B(  7-C ,  8-C ) :   1.4495 
B(  7-C , 10-C ) :   0.9318 B(  8-C ,  9-N ) :   0.9600 B(  8-C , 13-C ) :   0.9179 
B(  9-N , 30-H ) :   0.8007 B( 10-C , 11-N ) :   0.8410 B( 10-C , 15-O ) :   1.9209 
B( 11-N , 12-N ) :   0.8208 B( 11-N , 31-H ) :   0.8138 B( 12-N , 13-C ) :   0.9359 
B( 12-N , 18-C ) :   0.7895 B( 13-C , 14-O ) :   1.7823 B( 18-C , 19-C ) :   0.8878 
B( 18-C , 25-C ) :   0.9605 B( 18-C , 32-H ) :   0.9273 B( 19-C , 20-C ) :   1.3598 
B( 19-C , 24-N ) :   1.3901 B( 20-C , 21-C ) :   1.4343 B( 20-C , 23-C ) :   0.1061 
B( 20-C , 33-H ) :   0.9229 B( 21-C , 22-C ) :   1.4293 B( 21-C , 34-H ) :   0.9305 
B( 22-C , 23-C ) :   1.3991 B( 22-C , 35-H ) :   0.9300 B( 23-C , 24-N ) :   1.3598 
B( 23-C , 36-H ) :   0.9306 B( 25-C , 26-C ) :   0.9527 B( 25-C , 37-H ) :   0.9193 
B( 25-C , 38-H ) :   0.9168 B( 26-C , 39-H ) :   0.9530 B( 26-C , 40-H ) :   0.9549 
B( 26-C , 41-H ) :   0.9482 

-------
TIMINGS
-------

Total SCF time: 0 days 0 hours 0 min 50 sec 

Total time                  ....      50.269 sec
Sum of individual times     ....      49.985 sec  ( 99.4%)

Fock matrix formation       ....      47.149 sec  ( 93.8%)
  XC integration            ....       1.800 sec  (  3.8% of F)
    Basis function eval.    ....       0.651 sec  ( 36.2% of XC)
    Density eval.           ....       0.365 sec  ( 20.3% of XC)
    XC-Functional eval.     ....       0.087 sec  (  4.8% of XC)
    XC-Potential eval.      ....       0.549 sec  ( 30.5% of XC)
Diagonalization             ....       0.134 sec  (  0.3%)
Density matrix formation    ....       0.033 sec  (  0.1%)
Population analysis         ....       0.047 sec  (  0.1%)
Initial guess               ....       0.379 sec  (  0.8%)
Orbital Transformation      ....       0.000 sec  (  0.0%)
Orbital Orthonormalization  ....       0.000 sec  (  0.0%)
DIIS solution               ....       0.071 sec  (  0.1%)
SOSCF solution              ....       0.167 sec  (  0.3%)
Grid generation             ....       2.005 sec  (  4.0%)

-------------------------   --------------------
FINAL SINGLE POINT ENERGY     -1636.822986979772
-------------------------   --------------------

MakePlots. Basename = [orca_orbitals]

---------------
PLOT GENERATION
---------------
choosing x-range =   -10.714576 ..    15.735884
choosing y-range =   -15.226091 ..    16.299415
choosing z-range =   -20.721402 ..    13.867170

GBW-File       ... orca_orbitals.gbw
PlotType       ... MO-PLOT
MO/Operator    ... 98 0
Output file    ... orcaHOMO-98.cube
Format         ... Gaussian-Cube
Resolution     ... 40 40 40
Boundaries     ...   -10.714576    15.735884 (x direction)
                     -15.226091    16.299415 (y direction)
                     -20.721402    13.867170 (z direction)
choosing x-range =   -10.714576 ..    15.735884
choosing y-range =   -15.226091 ..    16.299415
choosing z-range =   -20.721402 ..    13.867170

GBW-File       ... orca_orbitals.gbw
PlotType       ... MO-PLOT
MO/Operator    ... 97 0
Output file    ... orcaHOMO-1-97.cube
Format         ... Gaussian-Cube
Resolution     ... 40 40 40
Boundaries     ...   -10.714576    15.735884 (x direction)
                     -15.226091    16.299415 (y direction)
                     -20.721402    13.867170 (z direction)
choosing x-range =   -10.714576 ..    15.735884
choosing y-range =   -15.226091 ..    16.299415
choosing z-range =   -20.721402 ..    13.867170

GBW-File       ... orca_orbitals.gbw
PlotType       ... MO-PLOT
MO/Operator    ... 96 0
Output file    ... orcaHOMO-2-96.cube
Format         ... Gaussian-Cube
Resolution     ... 40 40 40
Boundaries     ...   -10.714576    15.735884 (x direction)
                     -15.226091    16.299415 (y direction)
                     -20.721402    13.867170 (z direction)
choosing x-range =   -10.714576 ..    15.735884
choosing y-range =   -15.226091 ..    16.299415
choosing z-range =   -20.721402 ..    13.867170

GBW-File       ... orca_orbitals.gbw
PlotType       ... MO-PLOT
MO/Operator    ... 99 0
Output file    ... orcaLUMO-99.cube
Format         ... Gaussian-Cube
Resolution     ... 40 40 40
Boundaries     ...   -10.714576    15.735884 (x direction)
                     -15.226091    16.299415 (y direction)
                     -20.721402    13.867170 (z direction)
choosing x-range =   -10.714576 ..    15.735884
choosing y-range =   -15.226091 ..    16.299415
choosing z-range =   -20.721402 ..    13.867170

GBW-File       ... orca_orbitals.gbw
PlotType       ... MO-PLOT
MO/Operator    ... 100 0
Output file    ... orcaLUMO+1-100.cube
Format         ... Gaussian-Cube
Resolution     ... 40 40 40
Boundaries     ...   -10.714576    15.735884 (x direction)
                     -15.226091    16.299415 (y direction)
                     -20.721402    13.867170 (z direction)
choosing x-range =   -10.714576 ..    15.735884
choosing y-range =   -15.226091 ..    16.299415
choosing z-range =   -20.721402 ..    13.867170

GBW-File       ... orca_orbitals.gbw
PlotType       ... MO-PLOT
MO/Operator    ... 101 0
Output file    ... orcaLUMO+2-101.cube
Format         ... Gaussian-Cube
Resolution     ... 40 40 40
Boundaries     ...   -10.714576    15.735884 (x direction)
                     -15.226091    16.299415 (y direction)
                     -20.721402    13.867170 (z direction)

                            ***************************************
                            *     ORCA property calculations      *
                            ***************************************

                                    ---------------------
                                    Active property flags
                                    ---------------------
   (+) Dipole Moment
   (+) Quadrupole Moment


------------------------------------------------------------------------------
                       ORCA ELECTRIC PROPERTIES CALCULATION
------------------------------------------------------------------------------

Dipole Moment Calculation                       ... on
Quadrupole Moment Calculation                   ... on
Polarizability Calculation                      ... off
GBWName                                         ... orca_orbitals.gbw
Electron density file                           ... orca_orbitals.scfp.tmp
The origin for moment calculation is the CENTER OF MASS  = ( 0.872436, -1.733352 -1.297368)

-------------
DIPOLE MOMENT
-------------
                                X             Y             Z
Electronic contribution:     -9.50776      -8.55991     -31.04972
Nuclear contribution   :      9.94682      10.51563      31.46005
                        -----------------------------------------
Total Dipole Moment    :      0.43906       1.95573       0.41034
                        -----------------------------------------
Magnitude (a.u.)       :      2.04598
Magnitude (Debye)      :      5.20046


------------------------
QUADRUPOLE MOMENT (A.U.)
------------------------

                XX           YY           ZZ           XY           XZ           YZ
  NUC      1157.64805   3384.57318   8267.34531    694.21176    867.04460   2865.81653
  EL      -1282.14534  -3510.45522  -8378.27984   -707.55440   -867.52082  -2856.79593
  TOT      -124.49729   -125.88203   -110.93453    -13.34264     -0.47622      9.02059 (a.u.)
           -167.45311   -169.31564   -149.21074    -17.94631     -0.64053     12.13300 (Buckingham)

diagonalized tensor: 
  -139.95473    -117.17273    -104.18639   (a.u.)
  -188.24389    -157.60133    -140.13426   (Buckingham)
  -58.55032      9.79566     48.75467   (traceless form in Buckingham)

    0.63349      0.67726     -0.37418  
    0.74176     -0.39396      0.54276  
   -0.22017      0.62138      0.75194  

Isotropic quadrupole : -120.43795


Timings for individual modules:

Sum of individual times         ...       51.925 sec (=   0.865 min)
GTO integral calculation        ...        0.611 sec (=   0.010 min)   1.2 %
SCF iterations                  ...       50.359 sec (=   0.839 min)  97.0 %
Orbital/Density plot generation ...        0.955 sec (=   0.016 min)   1.8 %
                             ****ORCA TERMINATED NORMALLY****
TOTAL RUN TIME: 0 days 0 hours 0 minutes 52 seconds 233 msec
