
                                 *****************
                                 * O   R   C   A *
                                 *****************

           --- An Ab Initio, DFT and Semiempirical electronic structure package ---

                  #######################################################
                  #                        -***-                        #
                  #  Department of molecular theory and spectroscopy    #
                  #              Directorship: Frank Neese              #
                  # Max Planck Institute for Chemical Energy Conversion #
                  #                  D-45470 Muelheim/Ruhr              #
                  #                       Germany                       #
                  #                                                     #
                  #                  All rights reserved                #
                  #                        -***-                        #
                  #######################################################


                         Program Version 4.0.1.2 - RELEASE -


 With contributions from (in alphabetic order):
   Daniel Aravena         : Magnetic Properties
   Michael Atanasov       : Ab Initio Ligand Field Theory
   Ute Becker             : Parallelization
   Martin Brehm           : Molecular dynamics
   Dmytro Bykov           : SCF Hessian
   Vijay G. Chilkuri      : MRCI spin determinant printing
   Dipayan Datta          : RHF DLPNO-CCSD density
   Achintya Kumar Dutta   : EOM-CC, STEOM-CC
   Dmitry Ganyushin       : Spin-Orbit,Spin-Spin,Magnetic field MRCI
   Yang Guo               : DLPNO-NEVPT2, CIM, IAO-localization
   Andreas Hansen         : Spin unrestricted coupled pair/coupled cluster methods
   Lee Huntington         : MR-EOM, pCC
   Robert Izsak           : Overlap fitted RIJCOSX, COSX-SCS-MP3, EOM
   Christian Kollmar      : KDIIS, OOCD, Brueckner-CCSD(T), CCSD density
   Simone Kossmann        : Meta GGA functionals, TD-DFT gradient, OOMP2, MP2 Hessian
   Martin Krupicka        : AUTO-CI
   Dagmar Lenk            : GEPOL surface
   Dimitrios Liakos       : Extrapolation schemes; parallel MDCI
   Dimitrios Manganas     : ROCIS; embedding schemes
   Dimitrios Pantazis     : SARC Basis sets
   Taras Petrenko         : DFT Hessian,TD-DFT gradient, ASA, ECA, R-Raman, ABS, FL, XAS/XES, NRVS
   Peter Pinski           : DLPNO-MP2
   Christoph Reimann      : Effective Core Potentials
   Marius Retegan         : Local ZFS, SOC
   Christoph Riplinger    : Optimizer, TS searches, QM/MM, DLPNO-CCSD(T), (RO)-DLPNO pert. Triples
   Tobias Risthaus        : Range-separated hybrids, TD-DFT gradient, RPA, STAB
   Michael Roemelt        : Restricted open shell CIS
   Masaaki Saitow         : Open-shell DLPNO
   Barbara Sandhoefer     : DKH picture change effects
   Kantharuban Sivalingam : CASSCF convergence, NEVPT2, FIC-MRCI
   Georgi Stoychev        : AutoAux
   Boris Wezisla          : Elementary symmetry handling
   Frank Wennmohs         : Technical directorship


 We gratefully acknowledge several colleagues who have allowed us to
 interface, adapt or use parts of their codes:
   Stefan Grimme, W. Hujo, H. Kruse,             : VdW corrections, initial TS optimization,
                  C. Bannwarth                     DFT functionals, gCP, sTDA/sTD-DF
   Ed Valeev                                     : LibInt (2-el integral package), F12 methods
   Garnet Chan, S. Sharma, J. Yang, R. Olivares  : DMRG
   Ulf Ekstrom                                   : XCFun DFT Library
   Mihaly Kallay                                 : mrcc  (arbitrary order and MRCC methods)
   Andreas Klamt, Michael Diedenhofen            : otool_cosmo (COSMO solvation model)
   Jiri Pittner, Ondrej Demel                    : Mk-CCSD
   Frank Weinhold                                : gennbo (NPA and NBO analysis)
   Christopher J. Cramer and Donald G. Truhlar   : smd solvation model


 Your calculation uses the libint2 library for the computation of 2-el integrals
 For citations please refer to: http://libint.valeyev.net

 This ORCA versions uses:
   CBLAS   interface :  Fast vector & matrix operations
   LAPACKE interface :  Fast linear algebra routines
   SCALAPACK package :  Parallel linear algebra routines


Your calculation utilizes the basis: 6-31G
   H-He, Li-Ne : W. J. Hehre, R. Ditchfield and J.A. Pople, J. Chem. Phys. 56, 2257 (1972).
                 Note: He and Ne are unpublished basis sets taken from the Gaussian program.
                 Note: Li and B from J. D. Dill and J. A. Pople, J. Chem. Phys. 62, 2921 (1975).
   Na - Ar     : M. M. Francl, W. J. Pietro, W. J. Hehre, J. S. Binkley, M. S. Gordon, 
                 D. J. DeFrees and J. A. Pople, J. Chem. Phys. 77, 3654 (1982).
   K - Zn      : V. A. Rassolov, J. A. Pople, M. A. Ratner, and T. L. Windus, J. Chem. Phys. 109, 1223 (1998).

================================================================================
                                        WARNINGS
                       Please study these warnings very carefully!
================================================================================

Warning: TCutStore was < 0. Adjusted to Thresh (uncritical)

WARNING: Geometry Optimization
  ===> : Switching off AutoStart
         For restart on a previous wavefunction, please use MOREAD

INFO   : the flag for use of LIBINT has been found!

================================================================================
                                       INPUT FILE
================================================================================
NAME = orca_input.in
|  1> # Test redundant internal optimization for: antagonist3.mol2
|  2> #
|  3> ! opt B3LYP
|  4> ! PrintBasis 6-31G
|  5> %output
|  6>  print[P_MOs]1
|  7>  end #output
|  8> * xyz 0 1
|  9>   C1      -0.93272005   -3.48005756   -4.19678331 
| 10>   C2      -0.46622859   -2.75716100   -3.07984829 
| 11>   C3       0.35723280   -1.63378419   -3.29103982 
| 12>   C4       0.71566892   -1.22161177   -4.59436693 
| 13>   C5       0.23489148   -1.97051696   -5.65979191 
| 14>   C6      -0.58684571   -3.09647583   -5.48627435 
| 15>   C7      -0.86304524   -3.20310313   -1.71211230 
| 16>   C8      -0.24818069   -2.41443943   -0.61601946 
| 17>   C9       0.53012676   -1.32050241   -0.89093085 
| 18>   N10      0.83498774   -0.90712023   -2.17341853 
| 19>   C11     -0.47538433   -2.81762602    0.77393761 
| 20>   N12      0.22941849   -2.04315565    1.76618361 
| 21>   N13      0.78381027   -0.77790574    1.50716037 
| 22>   C14      1.13719781   -0.45286835    0.19647641 
| 23>   O15      1.78666870    0.54139481   -0.09019072 
| 24>   O16     -1.10162902   -3.74559228    1.23242063 
| 25>   O17     -1.62730595   -4.12646013   -1.54920683 
| 26>  Cl18      0.66632195   -1.50240992   -7.26105337 
| 27>   C19      1.46174534   -0.11703352    2.68778118 
| 28>   C20      0.90814685    1.30355622    2.80325991 
| 29>   C21     -0.45909729    1.57486975    2.60439766 
| 30>   C22     -0.91232876    2.88702179    2.76418173 
| 31>   C23     -0.00948270    3.89187012    3.12105409 
| 32>   C24      1.33611518    3.54115501    3.31633506 
| 33>   N25      1.79276284    2.27195417    3.16661427 
| 34>   C26      2.99522976   -0.17538217    2.56857975 
| 35>   C27      3.53569502   -1.59507946    2.65440244 
| 36>   H28     -1.57539368   -4.35305961   -4.02105729 
| 37>   H29      1.34800601   -0.35062022   -4.76188991 
| 38>   H30     -0.94487039   -3.65612059   -6.35072549 
| 39>   H31      1.41338424   -0.06474570   -2.30377257 
| 40>   H32     -0.00955422   -2.21422621    2.75429345 
| 41>   H33      1.15077259   -0.66521771    3.62306405 
| 42>   H34     -1.15320358    0.78443657    2.32549961 
| 43>   H35     -1.96566876    3.12430260    2.61292358 
| 44>   H36     -0.33694435    4.92103856    3.24707978 
| 45>   H37      2.08688726    4.28809294    3.60185824 
| 46>   H38      3.43994362    0.44913834    3.37728349 
| 47>   H39      3.32024250    0.32291813    1.62738820 
| 48>   H40      4.62283052   -1.60454290    2.49899408 
| 49>   H41      3.35034274   -2.05112056    3.63394979 
| 50>   H42      3.09955389   -2.25840982    1.89716298 
| 51>  
| 52> *
| 53> %elprop
| 54> Quadrupole True
| 55> end
| 56> %pal
| 57> nprocs 1                 
| 58> endd                         ****END OF INPUT****
================================================================================

                       *****************************
                       * Geometry Optimization Run *
                       *****************************

Geometry optimization settings:
Update method            Update   .... BFGS
Choice of coordinates    CoordSys .... Redundant Internals
Initial Hessian          InHess   .... Almoef's Model

Convergence Tolerances:
Energy Change            TolE     ....  5.0000e-06 Eh
Max. Gradient            TolMAXG  ....  3.0000e-04 Eh/bohr
RMS Gradient             TolRMSG  ....  1.0000e-04 Eh/bohr
Max. Displacement        TolMAXD  ....  4.0000e-03 bohr
RMS Displacement         TolRMSD  ....  2.0000e-03 bohr

------------------------------------------------------------------------------
                        ORCA OPTIMIZATION COORDINATE SETUP
------------------------------------------------------------------------------

The optimization will be done in new redundant internal coordinates
Making redundant internal coordinates   ...  (new redundants) done
Evaluating the initial hessian          ...  (Almloef) done
Evaluating the coordinates              ...  done
Calculating the B-matrix                .... done
Calculating the G-matrix                .... done
Diagonalizing the G-matrix              .... done
Small eigenvalue found = 3.738e-03
Small eigenvalue found = 7.314e-03
Small eigenvalue found = 1.080e-02
Small eigenvalue found = 1.673e-02
The first mode is                       ....  115
The number of degrees of freedom        ....  120

    -----------------------------------------------------------------
                    Redundant Internal Coordinates


    -----------------------------------------------------------------
         Definition                    Initial Value    Approx d2E/dq
    -----------------------------------------------------------------
      1. B(C   1,C   0)                  1.4099         0.580811   
      2. B(C   2,C   1)                  1.4088         0.583141   
      3. B(C   3,C   2)                  1.4132         0.573834   
      4. B(C   4,C   3)                  1.3882         0.628911   
      5. B(C   5,C   4)                  1.4047         0.591981   
      6. B(C   5,C   0)                  1.3891         0.626905   
      7. B(C   6,C   1)                  1.4923         0.429030   
      8. B(C   7,C   6)                  1.4837         0.442783   
      9. B(C   8,C   7)                  1.3704         0.671406   
     10. B(N   9,C   8)                  1.3815         0.577303   
     11. B(N   9,C   2)                  1.4161         0.508415   
     12. B(C  10,C   7)                  1.4650         0.474368   
     13. B(N  11,C  10)                  1.4426         0.461265   
     14. B(N  12,N  11)                  1.4055         0.473540   
     15. B(C  13,C   8)                  1.5178         0.390669   
     16. B(C  13,N  12)                  1.3959         0.547680   
     17. B(O  14,C  13)                  1.2217         1.038456   
     18. B(O  15,C  10)                  1.2098         1.085032   
     19. B(O  16,C   6)                  1.2096         1.085510   
     20. B(Cl 17,C   4)                  1.7232         0.412280   
     21. B(C  18,N  12)                  1.5133         0.355702   
     22. B(C  19,C  18)                  1.5290         0.374931   
     23. B(C  20,C  19)                  1.4080         0.584780   
     24. B(C  21,C  20)                  1.3974         0.608067   
     25. B(C  22,C  21)                  1.3972         0.608454   
     26. B(C  23,C  22)                  1.4042         0.593046   
     27. B(N  24,C  23)                  1.3571         0.631408   
     28. B(N  24,C  19)                  1.3610         0.622467   
     29. B(C  25,C  18)                  1.5392         0.361138   
     30. B(C  26,C  25)                  1.5215         0.385402   
     31. B(H  27,C   0)                  1.0982         0.349415   
     32. B(H  28,C   3)                  1.0893         0.361048   
     33. B(H  29,C   5)                  1.0903         0.359761   
     34. B(H  30,N   9)                  1.0301         0.401891   
     35. B(H  31,N  11)                  1.0309         0.400743   
     36. B(H  32,C  18)                  1.1278         0.313396   
     37. B(H  33,C  20)                  1.0883         0.362383   
     38. B(H  34,C  21)                  1.0903         0.359732   
     39. B(H  35,C  22)                  1.0873         0.363640   
     40. B(H  36,C  23)                  1.0969         0.351140   
     41. B(H  37,C  25)                  1.1144         0.329275   
     42. B(H  38,C  25)                  1.1135         0.330373   
     43. B(H  39,C  26)                  1.0982         0.349378   
     44. B(H  40,C  26)                  1.0963         0.351880   
     45. B(H  41,C  26)                  1.0971         0.350823   
     46. A(C   1,C   0,C   5)          120.7605         0.429857   
     47. A(C   5,C   0,H  27)          120.9152         0.351774   
     48. A(C   1,C   0,H  27)          118.3243         0.347271   
     49. A(C   0,C   1,C   6)          119.0049         0.401818   
     50. A(C   2,C   1,C   6)          122.0803         0.402102   
     51. A(C   0,C   1,C   2)          118.9145         0.424320   
     52. A(C   1,C   2,C   3)          121.2716         0.423404   
     53. A(C   3,C   2,N   9)          119.5144         0.410517   
     54. A(C   1,C   2,N   9)          119.2139         0.411690   
     55. A(C   2,C   3,C   4)          117.5575         0.429172   
     56. A(C   2,C   3,H  28)          121.4864         0.348482   
     57. A(C   4,C   3,H  28)          120.9558         0.353920   
     58. A(C   5,C   4,Cl 17)          118.6206         0.418311   
     59. A(C   3,C   4,Cl 17)          118.6804         0.422853   
     60. A(C   3,C   4,C   5)          122.6989         0.431578   
     61. A(C   0,C   5,H  29)          120.8323         0.353515   
     62. A(C   4,C   5,H  29)          120.3725         0.350105   
     63. A(C   0,C   5,C   4)          118.7951         0.431330   
     64. A(C   1,C   6,C   7)          114.0815         0.383184   
     65. A(C   7,C   6,O  16)          124.6163         0.448980   
     66. A(C   1,C   6,O  16)          121.3010         0.446418   
     67. A(C   6,C   7,C  10)          119.3636         0.389950   
     68. A(C   6,C   7,C   8)          120.7613         0.414568   
     69. A(C   8,C   7,C  10)          119.8747         0.419685   
     70. A(C   7,C   8,N   9)          123.3949         0.431870   
     71. A(N   9,C   8,C  13)          113.9391         0.392320   
     72. A(C   7,C   8,C  13)          122.6660         0.405470   
     73. A(C   2,N   9,C   8)          120.3084         0.408306   
     74. A(C   2,N   9,H  30)          120.6093         0.342550   
     75. A(C   8,N   9,H  30)          119.0823         0.349948   
     76. A(N  11,C  10,O  15)          113.8311         0.449301   
     77. A(C   7,C  10,O  15)          130.6151         0.454601   
     78. A(C   7,C  10,N  11)          115.4086         0.390249   
     79. A(N  12,N  11,H  31)          114.6757         0.336250   
     80. A(C  10,N  11,H  31)          117.1892         0.336865   
     81. A(C  10,N  11,N  12)          123.3159         0.385145   
     82. A(N  11,N  12,C  18)          115.2178         0.368228   
     83. A(N  11,N  12,C  13)          118.8518         0.396882   
     84. A(C  13,N  12,C  18)          121.1604         0.380016   
     85. A(N  12,C  13,O  14)          122.9853         0.459879   
     86. A(C   8,C  13,O  14)          120.6460         0.435428   
     87. A(C   8,C  13,N  12)          115.9982         0.388725   
     88. A(C  25,C  18,H  32)          108.6932         0.315294   
     89. A(C  19,C  18,H  32)          106.8058         0.317222   
     90. A(N  12,C  18,H  32)          108.1304         0.312663   
     91. A(C  19,C  18,C  25)          113.6897         0.361480   
     92. A(N  12,C  18,C  25)          111.6744         0.356037   
     93. A(N  12,C  18,C  19)          107.6052         0.358312   
     94. A(C  20,C  19,N  24)          122.1235         0.427030   
     95. A(C  18,C  19,N  24)          116.4813         0.394677   
     96. A(C  18,C  19,C  20)          121.3282         0.392887   
     97. A(C  21,C  20,H  33)          120.2948         0.352127   
     98. A(C  19,C  20,H  33)          121.0357         0.349811   
     99. A(C  19,C  20,C  21)          118.6683         0.428034   
    100. A(C  22,C  21,H  34)          120.2120         0.351728   
    101. A(C  20,C  21,H  34)          120.1224         0.351690   
    102. A(C  20,C  21,C  22)          119.6655         0.431093   
    103. A(C  23,C  22,H  35)          120.5888         0.350846   
    104. A(C  21,C  22,H  35)          121.0448         0.352371   
    105. A(C  21,C  22,C  23)          118.3663         0.429162   
    106. A(C  22,C  23,N  24)          122.7295         0.429202   
    107. A(N  24,C  23,H  36)          115.8020         0.350325   
    108. A(C  22,C  23,H  36)          121.4685         0.348782   
    109. A(C  19,N  24,C  23)          118.4359         0.430121   
    110. A(C  18,C  25,C  26)          112.6372         0.363185   
    111. A(H  37,C  25,H  38)          104.2493         0.282973   
    112. A(C  26,C  25,H  38)          111.1968         0.321408   
    113. A(C  18,C  25,H  38)          109.8346         0.318013   
    114. A(C  26,C  25,H  37)          109.8911         0.321233   
    115. A(C  18,C  25,H  37)          108.6716         0.317840   
    116. A(H  40,C  26,H  41)          107.3370         0.288605   
    117. A(H  39,C  26,H  41)          106.8964         0.288283   
    118. A(C  25,C  26,H  41)          112.5826         0.324589   
    119. A(H  39,C  26,H  40)          106.8712         0.288418   
    120. A(C  25,C  26,H  40)          112.2403         0.324750   
    121. A(C  25,C  26,H  39)          110.5905         0.324369   
    122. D(C   6,C   1,C   0,H  27)     -0.0725         0.023180   
    123. D(C   2,C   1,C   0,C   5)      0.1199         0.023180   
    124. D(C   6,C   1,C   0,C   5)    179.9440         0.023180   
    125. D(C   2,C   1,C   0,H  27)   -179.8966         0.023180   
    126. D(C   3,C   2,C   1,C   0)      0.2203         0.023375   
    127. D(N   9,C   2,C   1,C   0)   -179.6783         0.023375   
    128. D(N   9,C   2,C   1,C   6)      0.5033         0.023375   
    129. D(C   3,C   2,C   1,C   6)   -179.5981         0.023375   
    130. D(H  28,C   3,C   2,N   9)     -0.4158         0.022601   
    131. D(H  28,C   3,C   2,C   1)    179.6858         0.022601   
    132. D(C   4,C   3,C   2,C   1)     -0.4817         0.022601   
    133. D(C   4,C   3,C   2,N   9)    179.4167         0.022601   
    134. D(Cl 17,C   4,C   3,C   2)   -179.4344         0.027418   
    135. D(C   5,C   4,C   3,C   2)      0.4239         0.027418   
    136. D(C   5,C   4,C   3,H  28)   -179.7427         0.027418   
    137. D(Cl 17,C   4,C   3,H  28)      0.3991         0.027418   
    138. D(C   0,C   5,C   4,Cl 17)    179.7588         0.024125   
    139. D(C   0,C   5,C   4,C   3)     -0.0995         0.024125   
    140. D(H  29,C   5,C   0,H  27)     -0.1380         0.027232   
    141. D(H  29,C   5,C   4,Cl 17)     -0.2676         0.024125   
    142. D(C   4,C   5,C   0,H  27)    179.8355         0.027232   
    143. D(H  29,C   5,C   4,C   3)    179.8741         0.024125   
    144. D(C   4,C   5,C   0,C   1)     -0.1815         0.027232   
    145. D(H  29,C   5,C   0,C   1)    179.8450         0.027232   
    146. D(O  16,C   6,C   1,C   0)     -3.7712         0.012578   
    147. D(O  16,C   6,C   1,C   2)    176.0471         0.012578   
    148. D(C   7,C   6,C   1,C   0)    176.5995         0.012578   
    149. D(C   7,C   6,C   1,C   2)     -3.5823         0.012578   
    150. D(C  10,C   7,C   6,C   1)   -175.2846         0.013374   
    151. D(C   8,C   7,C   6,O  16)   -175.1229         0.013374   
    152. D(C   8,C   7,C   6,C   1)      4.4922         0.013374   
    153. D(C  10,C   7,C   6,O  16)      5.1003         0.013374   
    154. D(C  13,C   8,C   7,C  10)     -2.5666         0.031537   
    155. D(N   9,C   8,C   7,C  10)    177.3720         0.031537   
    156. D(C  13,C   8,C   7,C   6)    177.6577         0.031537   
    157. D(N   9,C   8,C   7,C   6)     -2.4037         0.031537   
    158. D(H  30,N   9,C   8,C  13)     -1.1047         0.026715   
    159. D(C   2,N   9,C   8,C  13)    178.8964         0.026715   
    160. D(C   2,N   9,C   8,C   7)     -1.0470         0.026715   
    161. D(H  30,N   9,C   2,C   3)      2.0797         0.020458   
    162. D(H  30,N   9,C   2,C   1)   -178.0199         0.020458   
    163. D(H  30,N   9,C   8,C   7)    178.9519         0.026715   
    164. D(C   8,N   9,C   2,C   3)   -177.9215         0.020458   
    165. D(C   8,N   9,C   2,C   1)      1.9790         0.020458   
    166. D(O  15,C  10,C   7,C   8)   -178.8101         0.015321   
    167. D(O  15,C  10,C   7,C   6)      0.9688         0.015321   
    168. D(N  11,C  10,C   7,C   8)     -3.5217         0.015321   
    169. D(N  11,C  10,C   7,C   6)    176.2572         0.015321   
    170. D(H  31,N  11,C  10,O  15)    -12.2391         0.016763   
    171. D(H  31,N  11,C  10,C   7)    171.6694         0.016763   
    172. D(N  12,N  11,C  10,O  15)   -166.3030         0.016763   
    173. D(N  12,N  11,C  10,C   7)     17.6056         0.016763   
    174. D(C  18,N  12,N  11,H  31)     24.2873         0.020578   
    175. D(C  18,N  12,N  11,C  10)    178.9380         0.020578   
    176. D(C  13,N  12,N  11,H  31)   -179.8654         0.020578   
    177. D(C  13,N  12,N  11,C  10)    -25.2147         0.020578   
    178. D(C   8,C  13,N  12,C  18)    171.6107         0.023897   
    179. D(C   8,C  13,N  12,N  11)     17.2425         0.023897   
    180. D(O  14,C  13,C   8,N   9)      2.6449         0.010524   
    181. D(O  14,C  13,C   8,C   7)   -177.4113         0.010524   
    182. D(N  12,C  13,C   8,N   9)    175.8622         0.010524   
    183. D(O  14,C  13,N  12,N  11)   -169.7150         0.023897   
    184. D(N  12,C  13,C   8,C   7)     -4.1939         0.010524   
    185. D(O  14,C  13,N  12,C  18)    -15.3468         0.023897   
    186. D(H  32,C  18,N  12,C  13)   -169.9097         0.010901   
    187. D(H  32,C  18,N  12,N  11)    -14.6688         0.010901   
    188. D(C  25,C  18,N  12,C  13)    -50.3693         0.010901   
    189. D(C  25,C  18,N  12,N  11)    104.8716         0.010901   
    190. D(C  19,C  18,N  12,C  13)     75.0608         0.010901   
    191. D(C  19,C  18,N  12,N  11)   -129.6983         0.010901   
    192. D(N  24,C  19,C  18,H  32)    101.7669         0.010508   
    193. D(N  24,C  19,C  18,C  25)    -18.1091         0.010508   
    194. D(N  24,C  19,C  18,N  12)   -142.3283         0.010508   
    195. D(C  20,C  19,C  18,H  32)    -75.3154         0.010508   
    196. D(C  20,C  19,C  18,C  25)    164.8086         0.010508   
    197. D(C  20,C  19,C  18,N  12)     40.5894         0.010508   
    198. D(H  33,C  20,C  19,N  24)   -179.2610         0.023513   
    199. D(H  33,C  20,C  19,C  18)     -2.3448         0.023513   
    200. D(C  21,C  20,C  19,N  24)      1.1278         0.023513   
    201. D(C  21,C  20,C  19,C  18)    178.0440         0.023513   
    202. D(H  34,C  21,C  20,H  33)      0.1935         0.025527   
    203. D(H  34,C  21,C  20,C  19)    179.8076         0.025527   
    204. D(C  22,C  21,C  20,H  33)   -179.9296         0.025527   
    205. D(C  22,C  21,C  20,C  19)     -0.3155         0.025527   
    206. D(H  35,C  22,C  21,H  34)     -0.3941         0.025561   
    207. D(H  35,C  22,C  21,C  20)    179.7291         0.025561   
    208. D(C  23,C  22,C  21,H  34)    179.5066         0.025561   
    209. D(C  23,C  22,C  21,C  20)     -0.3702         0.025561   
    210. D(H  36,C  23,C  22,H  35)      0.1917         0.024216   
    211. D(H  36,C  23,C  22,C  21)   -179.7095         0.024216   
    212. D(N  24,C  23,C  22,H  35)   -179.7819         0.024216   
    213. D(N  24,C  23,C  22,C  21)      0.3169         0.024216   
    214. D(C  19,N  24,C  23,H  36)   -179.5210         0.029329   
    215. D(C  19,N  24,C  23,C  22)      0.4539         0.029329   
    216. D(C  23,N  24,C  19,C  20)     -1.1872         0.028444   
    217. D(C  23,N  24,C  19,C  18)   -178.2443         0.028444   
    218. D(H  38,C  25,C  18,H  32)    177.5679         0.010459   
    219. D(H  38,C  25,C  18,C  19)    -63.6311         0.010459   
    220. D(H  38,C  25,C  18,N  12)     58.3603         0.010459   
    221. D(H  37,C  25,C  18,H  32)    -68.9731         0.010459   
    222. D(H  37,C  25,C  18,C  19)     49.8279         0.010459   
    223. D(H  37,C  25,C  18,N  12)    171.8193         0.010459   
    224. D(C  26,C  25,C  18,H  32)     53.0349         0.010459   
    225. D(C  26,C  25,C  18,C  19)    171.8359         0.010459   
    226. D(C  26,C  25,C  18,N  12)    -66.1727         0.010459   
    227. D(H  41,C  26,C  25,H  38)    -67.0509         0.011822   
    228. D(H  41,C  26,C  25,H  37)    178.0469         0.011822   
    229. D(H  41,C  26,C  25,C  18)     56.7308         0.011822   
    230. D(H  40,C  26,C  25,H  38)    171.7009         0.011822   
    231. D(H  40,C  26,C  25,H  37)     56.7988         0.011822   
    232. D(H  40,C  26,C  25,C  18)    -64.5173         0.011822   
    233. D(H  39,C  26,C  25,H  38)     52.4545         0.011822   
    234. D(H  39,C  26,C  25,H  37)    -62.4476         0.011822   
    235. D(H  39,C  26,C  25,C  18)    176.2362         0.011822   
    -----------------------------------------------------------------

Number of atoms                         .... 42
Number of degrees of freedom            .... 235

         *************************************************************
         *                GEOMETRY OPTIMIZATION CYCLE   1            *
         *************************************************************
---------------------------------
CARTESIAN COORDINATES (ANGSTROEM)
---------------------------------
  C     -0.932720   -3.480058   -4.196783
  C     -0.466229   -2.757161   -3.079848
  C      0.357233   -1.633784   -3.291040
  C      0.715669   -1.221612   -4.594367
  C      0.234891   -1.970517   -5.659792
  C     -0.586846   -3.096476   -5.486274
  C     -0.863045   -3.203103   -1.712112
  C     -0.248181   -2.414439   -0.616019
  C      0.530127   -1.320502   -0.890931
  N      0.834988   -0.907120   -2.173419
  C     -0.475384   -2.817626    0.773938
  N      0.229418   -2.043156    1.766184
  N      0.783810   -0.777906    1.507160
  C      1.137198   -0.452868    0.196476
  O      1.786669    0.541395   -0.090191
  O     -1.101629   -3.745592    1.232421
  O     -1.627306   -4.126460   -1.549207
  Cl     0.666322   -1.502410   -7.261053
  C      1.461745   -0.117034    2.687781
  C      0.908147    1.303556    2.803260
  C     -0.459097    1.574870    2.604398
  C     -0.912329    2.887022    2.764182
  C     -0.009483    3.891870    3.121054
  C      1.336115    3.541155    3.316335
  N      1.792763    2.271954    3.166614
  C      2.995230   -0.175382    2.568580
  C      3.535695   -1.595079    2.654402
  H     -1.575394   -4.353060   -4.021057
  H      1.348006   -0.350620   -4.761890
  H     -0.944870   -3.656121   -6.350725
  H      1.413384   -0.064746   -2.303773
  H     -0.009554   -2.214226    2.754293
  H      1.150773   -0.665218    3.623064
  H     -1.153204    0.784437    2.325500
  H     -1.965669    3.124303    2.612924
  H     -0.336944    4.921039    3.247080
  H      2.086887    4.288093    3.601858
  H      3.439944    0.449138    3.377283
  H      3.320242    0.322918    1.627388
  H      4.622831   -1.604543    2.498994
  H      3.350343   -2.051121    3.633950
  H      3.099554   -2.258410    1.897163

----------------------------
CARTESIAN COORDINATES (A.U.)
----------------------------
  NO LB      ZA    FRAG     MASS         X           Y           Z
   0 C     6.0000    0    12.011   -1.762585   -6.576356   -7.930771
   1 C     6.0000    0    12.011   -0.881044   -5.210279   -5.820070
   2 C     6.0000    0    12.011    0.675072   -3.087405   -6.219164
   3 C     6.0000    0    12.011    1.352418   -2.308512   -8.682095
   4 C     6.0000    0    12.011    0.443881   -3.723737  -10.695457
   5 C     6.0000    0    12.011   -1.108978   -5.851491  -10.367556
   6 C     6.0000    0    12.011   -1.630919   -6.052988   -3.235423
   7 C     6.0000    0    12.011   -0.468994   -4.562629   -1.164108
   8 C     6.0000    0    12.011    1.001794   -2.495388   -1.683615
   9 N     7.0000    0    14.007    1.577898   -1.714209   -4.107166
  10 C     6.0000    0    12.011   -0.898346   -5.324542    1.462530
  11 N     7.0000    0    14.007    0.433538   -3.861005    3.337603
  12 N     7.0000    0    14.007    1.481187   -1.470029    2.848120
  13 C     6.0000    0    12.011    2.148992   -0.855797    0.371287
  14 O     8.0000    0    15.999    3.376315    1.023088   -0.170436
  15 O     8.0000    0    15.999   -2.081777   -7.078144    2.328937
  16 O     8.0000    0    15.999   -3.075163   -7.797880   -2.927577
  17 Cl   17.0000    0    35.453    1.259166   -2.839143  -13.721402
  18 C     6.0000    0    12.011    2.762298   -0.221161    5.079170
  19 C     6.0000    0    12.011    1.716149    2.463364    5.297394
  20 C     6.0000    0    12.011   -0.867568    2.976073    4.921598
  21 C     6.0000    0    12.011   -1.724052    5.455681    5.223546
  22 C     6.0000    0    12.011   -0.017920    7.354569    5.897937
  23 C     6.0000    0    12.011    2.524892    6.691813    6.266965
  24 N     7.0000    0    14.007    3.387831    4.293371    5.984034
  25 C     6.0000    0    12.011    5.660164   -0.331424    4.853912
  26 C     6.0000    0    12.011    6.681495   -3.014263    5.016094
  27 H     1.0000    0     1.008   -2.977063   -8.226091   -7.598697
  28 H     1.0000    0     1.008    2.547362   -0.662576   -8.998668
  29 H     1.0000    0     1.008   -1.785546   -6.909067  -12.001132
  30 H     1.0000    0     1.008    2.670909   -0.122352   -4.353499
  31 H     1.0000    0     1.008   -0.018055   -4.184281    5.204860
  32 H     1.0000    0     1.008    2.174645   -1.257079    6.846599
  33 H     1.0000    0     1.008   -2.179239    1.482370    4.394557
  34 H     1.0000    0     1.008   -3.714576    5.904076    4.937710
  35 H     1.0000    0     1.008   -0.636733    9.299415    6.136092
  36 H     1.0000    0     1.008    3.943645    8.103321    6.806526
  37 H     1.0000    0     1.008    6.500551    0.848748    6.382141
  38 H     1.0000    0     1.008    6.274349    0.610227    3.075318
  39 H     1.0000    0     1.008    8.735884   -3.032147    4.722414
  40 H     1.0000    0     1.008    6.331230   -3.876056    6.867170
  41 H     1.0000    0     1.008    5.857308   -4.267776    3.585118

--------------------------------
INTERNAL COORDINATES (ANGSTROEM)
--------------------------------
 C      0   0   0     0.000000000000     0.00000000     0.00000000
 C      1   0   0     1.409871468473     0.00000000     0.00000000
 C      2   1   0     1.408781736257   118.91448879     0.00000000
 C      3   2   1     1.413161035265   121.27163814     0.22033995
 C      4   3   2     1.388213354795   117.55753999   359.51831570
 C      1   2   3     1.389082843066   120.76053758     0.11991288
 C      2   1   3     1.492323549157   119.00494263   179.82409338
 C      7   2   1     1.483734599059   114.08153379   176.59946446
 C      8   7   2     1.370414887107   120.76131540     4.49223959
 N      9   8   7     1.381520790006   123.39488120   357.59629869
 C      8   7   2     1.464978353706   119.36358812   184.71540063
 N     11   8   7     1.442603027033   115.40857265   176.25718677
 N     12  11   8     1.405453883750   123.31590310    17.60556510
 C     13  12  11     1.395859771369   118.85180303   334.78527105
 O     14  13  12     1.221699517767   122.98530409   190.28498227
 O     11   8   7     1.209756368481   130.61510622     0.96876125
 O      7   2   1     1.209636629098   121.30100007   356.22878181
 Cl     5   4   3     1.723164157770   118.68039950   180.56563616
 C     13  12  11     1.513345151414   115.21775313   178.93796155
 C     19  13  12     1.529013353312   107.60519094   230.30168466
 C     20  19  13     1.408017671906   121.32816003    40.58937962
 C     21  20  19     1.397387809629   118.66831569   178.04399616
 C     22  21  20     1.397214749311   119.66552477   359.68453677
 C     23  22  21     1.404197066044   118.36629702   359.62978444
 N     24  23  22     1.357134544766   122.72954833     0.31692773
 C     19  13  12     1.539216687882   111.67444528   104.87162476
 C     26  19  13     1.521515240351   112.63723933   293.82730543
 H      1   2   3     1.098199257014   118.32426298   180.10341474
 H      4   3   2     1.089284363419   121.48640144   179.68583642
 H      6   1   2     1.090256713959   120.83233845   179.84503256
 H     10   9   8     1.030111419095   119.08234584   178.95185660
 H     12  11   8     1.030889978867   117.18918323   171.66943015
 H     19  13  12     1.127813816338   108.13043510   345.33121353
 H     21  20  19     1.088279502773   121.03570519   357.65517617
 H     22  21  20     1.090278114215   120.12236060   179.80763942
 H     23  22  21     1.087336785294   121.04479252   179.72907745
 H     24  23  22     1.096858456546   121.46846220   180.29048228
 H     26  19  13     1.114359916623   108.67159724   171.81934317
 H     26  19  13     1.113453188928   109.83459972    58.36032100
 H     27  26  19     1.098228077594   110.59045868   176.23623119
 H     27  26  19     1.096285530089   112.24033634   295.48265342
 H     27  26  19     1.097104302952   112.58258999    56.73079228

---------------------------
INTERNAL COORDINATES (A.U.)
---------------------------
 C      0   0   0     0.000000000000     0.00000000     0.00000000
 C      1   0   0     2.664270959444     0.00000000     0.00000000
 C      2   1   0     2.662211663995   118.91448879     0.00000000
 C      3   2   1     2.670487339779   121.27163814     0.22033995
 C      4   3   2     2.623343056014   117.55753999   359.51831570
 C      1   2   3     2.624986150724   120.76053758     0.11991288
 C      2   1   3     2.820082811107   119.00494263   179.82409338
 C      7   2   1     2.803852047644   114.08153379   176.59946446
 C      8   7   2     2.589708826480   120.76131540     4.49223959
 N      9   8   7     2.610695941431   123.39488120   357.59629869
 C      8   7   2     2.768407880628   119.36358812   184.71540063
 N     11   8   7     2.726124641058   115.40857265   176.25718677
 N     12  11   8     2.655922934143   123.31590310    17.60556510
 C     13  12  11     2.637792689245   118.85180303   334.78527105
 O     14  13  12     2.308677506524   122.98530409   190.28498227
 O     11   8   7     2.286108225196   130.61510622     0.96876125
 O      7   2   1     2.285881950554   121.30100007   356.22878181
 Cl     5   4   3     3.256308341974   118.68039950   180.56563616
 C     13  12  11     2.859807882270   115.21775313   178.93796155
 C     19  13  12     2.889416492868   107.60519094   230.30168466
 C     20  19  13     2.660767791624   121.32816003    40.58937962
 C     21  20  19     2.640680263079   118.66831569   178.04399616
 C     22  21  20     2.640353226474   119.66552477   359.68453677
 C     23  22  21     2.653547892879   118.36629702   359.62978444
 N     24  23  22     2.564612616492   122.72954833     0.31692773
 C     19  13  12     2.908698000858   111.67444528   104.87162476
 C     26  19  13     2.875247112850   112.63723933   293.82730543
 H      1   2   3     2.075295836233   118.32426298   180.10341474
 H      4   3   2     2.058449128825   121.48640144   179.68583642
 H      6   1   2     2.060286605051   120.83233845   179.84503256
 H     10   9   8     1.946628469514   119.08234584   178.95185660
 H     12  11   8     1.948099734262   117.18918323   171.66943015
 H     19  13  12     2.131259242932   108.13043510   345.33121353
 H     21  20  19     2.056550217401   121.03570519   357.65517617
 H     22  21  20     2.060327045674   120.12236060   179.80763942
 H     23  22  21     2.054768739543   121.04479252   179.72907745
 H     24  23  22     2.072762090548   121.46846220   180.29048228
 H     26  19  13     2.105835057037   108.67159724   171.81934317
 H     26  19  13     2.104121590015   109.83459972    58.36032100
 H     27  26  19     2.075350299235   110.59045868   176.23623119
 H     27  26  19     2.071679416449   112.24033634   295.48265342
 H     27  26  19     2.073226672926   112.58258999    56.73079228

---------------------
BASIS SET INFORMATION
---------------------
There are 5 groups of distinct atoms

 Group   1 Type C   : 10s4p contracted to 3s2p pattern {631/31}
 Group   2 Type N   : 10s4p contracted to 3s2p pattern {631/31}
 Group   3 Type O   : 10s4p contracted to 3s2p pattern {631/31}
 Group   4 Type Cl  : 16s10p contracted to 4s3p pattern {6631/631}
 Group   5 Type H   : 4s contracted to 2s pattern {31}

Atom   0C    basis set group =>   1
Atom   1C    basis set group =>   1
Atom   2C    basis set group =>   1
Atom   3C    basis set group =>   1
Atom   4C    basis set group =>   1
Atom   5C    basis set group =>   1
Atom   6C    basis set group =>   1
Atom   7C    basis set group =>   1
Atom   8C    basis set group =>   1
Atom   9N    basis set group =>   2
Atom  10C    basis set group =>   1
Atom  11N    basis set group =>   2
Atom  12N    basis set group =>   2
Atom  13C    basis set group =>   1
Atom  14O    basis set group =>   3
Atom  15O    basis set group =>   3
Atom  16O    basis set group =>   3
Atom  17Cl   basis set group =>   4
Atom  18C    basis set group =>   1
Atom  19C    basis set group =>   1
Atom  20C    basis set group =>   1
Atom  21C    basis set group =>   1
Atom  22C    basis set group =>   1
Atom  23C    basis set group =>   1
Atom  24N    basis set group =>   2
Atom  25C    basis set group =>   1
Atom  26C    basis set group =>   1
Atom  27H    basis set group =>   5
Atom  28H    basis set group =>   5
Atom  29H    basis set group =>   5
Atom  30H    basis set group =>   5
Atom  31H    basis set group =>   5
Atom  32H    basis set group =>   5
Atom  33H    basis set group =>   5
Atom  34H    basis set group =>   5
Atom  35H    basis set group =>   5
Atom  36H    basis set group =>   5
Atom  37H    basis set group =>   5
Atom  38H    basis set group =>   5
Atom  39H    basis set group =>   5
Atom  40H    basis set group =>   5
Atom  41H    basis set group =>   5

-------------------------
BASIS SET IN INPUT FORMAT
-------------------------

 # Basis set for element : H 
 NewGTO H 
 S 3 
   1      18.7311370000      0.0334945995
   2       2.8253937000      0.2347269467
   3       0.6401217000      0.8137573184
 S 1 
   1       0.1612778000      1.0000000000
  end;

 # Basis set for element : C 
 NewGTO C 
 S 6 
   1    3047.5249000000      0.0018347002
   2     457.3695100000      0.0140373012
   3     103.9486900000      0.0688426061
   4      29.2101550000      0.2321844206
   5       9.2866630000      0.4679413416
   6       3.1639270000      0.3623120322
 S 3 
   1       7.8682724000     -0.1193324086
   2       1.8812885000     -0.1608542116
   3       0.5442493000      1.1434564826
 P 3 
   1       7.8682724000      0.0689990956
   2       1.8812885000      0.3164239798
   3       0.5442493000      0.7443082524
 S 1 
   1       0.1687144000      1.0000000000
 P 1 
   1       0.1687144000      1.0000000000
  end;

 # Basis set for element : N 
 NewGTO N 
 S 6 
   1    4173.5110000000      0.0018347994
   2     627.4579000000      0.0139949958
   3     142.9021000000      0.0685869792
   4      40.2343300000      0.2322409295
   5      12.8202100000      0.4690698576
   6       4.3904370000      0.3604548906
 S 3 
   1      11.6263580000     -0.1149610229
   2       2.7162800000     -0.1691180337
   3       0.7722180000      1.1458522281
 P 3 
   1      11.6263580000      0.0675800232
   2       2.7162800000      0.3239071114
   3       0.7722180000      0.7408952549
 S 1 
   1       0.2120313000      1.0000000000
 P 1 
   1       0.2120313000      1.0000000000
  end;

 # Basis set for element : O 
 NewGTO O 
 S 6 
   1    5484.6717000000      0.0018310998
   2     825.2349500000      0.0139500985
   3     188.0469600000      0.0684450927
   4      52.9645000000      0.2327142753
   5      16.8975700000      0.4701929501
   6       5.7996353000      0.3585208619
 S 3 
   1      15.5396160000     -0.1107775038
   2       3.5999336000     -0.1480263051
   3       1.0137618000      1.1307670390
 P 3 
   1      15.5396160000      0.0708742995
   2       3.5999336000      0.3397527978
   3       1.0137618000      0.7271585953
 S 1 
   1       0.2700058000      1.0000000000
 P 1 
   1       0.2700058000      1.0000000000
  end;

 # Basis set for element : Cl
 NewGTO Cl
 S 6 
   1   25180.1000000000      0.0018330003
   2    3780.3500000000      0.0140340024
   3     860.4740000000      0.0690970118
   4     242.1450000000      0.2374520404
   5      77.3349000000      0.4830340822
   6      26.2470000000      0.3398560578
 S 6 
   1     491.7650000000     -0.0022974020
   2     116.9840000000     -0.0307140266
   3      37.4153000000     -0.1125280974
   4      13.7834000000      0.0450160390
   5       5.4521500000      0.5893535102
   6       2.2258800000      0.4652064027
 P 6 
   1     491.7650000000      0.0039894005
   2     116.9840000000      0.0303180042
   3      37.4153000000      0.1298800178
   4      13.7834000000      0.3279510450
   5       5.4521500000      0.4535270623
   6       2.2258800000      0.2521540346
 S 3 
   1       3.1864900000     -0.2518312880
   2       1.1442700000      0.0615893150
   3       0.4203770000      1.0601854225
 P 3 
   1       3.1864900000     -0.0142990127
   2       1.1442700000      0.3235722877
   3       0.4203770000      0.7435076611
 S 1 
   1       0.1426570000      1.0000000000
 P 1 
   1       0.1426570000      1.0000000000
  end;

------------------------------------------------------------------------------
                           ORCA GTO INTEGRAL CALCULATION
------------------------------------------------------------------------------

                         BASIS SET STATISTICS AND STARTUP INFO

 # of primitive gaussian shells          ...  450
 # of primitive gaussian functions       ...  678
 # of contracted shells                  ...  167
 # of contracted basis functions         ...  277
 Highest angular momentum                ...    1
 Maximum contraction depth               ...    6
 Integral package used                   ... LIBINT
 Integral threshhold            Thresh   ...  2.500e-11
 Primitive cut-off              TCut     ...  2.500e-12


------------------------------ INTEGRAL EVALUATION ----------------------------


 * One electron integrals 
 Pre-screening matrix                    ... done
 Shell pair data                         ... done (   0.005 sec)

-------------------------------------------------------------------------------
                                 ORCA SCF
-------------------------------------------------------------------------------

------------
SCF SETTINGS
------------
Hamiltonian:
 Density Functional     Method          .... DFT(GTOs)
 Exchange Functional    Exchange        .... B88
   X-Alpha parameter    XAlpha          ....  0.666667
   Becke's b parameter  XBeta           ....  0.004200
 Correlation Functional Correlation     .... LYP
 LDA part of GGA corr.  LDAOpt          .... VWN-5
 Gradients option       PostSCFGGA      .... off
 Hybrid DFT is turned on
   Fraction HF Exchange ScalHFX         ....  0.200000
   Scaling of DF-GGA-X  ScalDFX         ....  0.720000
   Scaling of DF-GGA-C  ScalDFC         ....  0.810000
   Scaling of DF-LDA-C  ScalLDAC        ....  1.000000
   Perturbative correction              ....  0.000000
   NL short-range parameter             ....  4.800000


General Settings:
 Integral files         IntName         .... orca_input
 Hartree-Fock type      HFTyp           .... RHF
 Total Charge           Charge          ....    0
 Multiplicity           Mult            ....    1
 Number of Electrons    NEL             ....  198
 Basis Dimension        Dim             ....  277
 Nuclear Repulsion      ENuc            ....   2483.8323187419 Eh

Convergence Acceleration:
 DIIS                   CNVDIIS         .... on
   Start iteration      DIISMaxIt       ....    12
   Startup error        DIISStart       ....  0.200000
   # of expansion vecs  DIISMaxEq       ....     5
   Bias factor          DIISBfac        ....   1.050
   Max. coefficient     DIISMaxC        ....  10.000
 Newton-Raphson         CNVNR           .... off
 SOSCF                  CNVSOSCF        .... on
   Start iteration      SOSCFMaxIt      ....   150
   Startup grad/error   SOSCFStart      ....  0.003300
 Level Shifting         CNVShift        .... on
   Level shift para.    LevelShift      ....    0.2500
   Turn off err/grad.   ShiftErr        ....    0.0010
 Zerner damping         CNVZerner       .... off
 Static damping         CNVDamp         .... on
   Fraction old density DampFac         ....    0.7000
   Max. Damping (<1)    DampMax         ....    0.9800
   Min. Damping (>=0)   DampMin         ....    0.0000
   Turn off err/grad.   DampErr         ....    0.1000
 Fernandez-Rico         CNVRico         .... off

SCF Procedure:
 Maximum # iterations   MaxIter         ....   125
 SCF integral mode      SCFMode         .... Direct
   Integral package                     .... LIBINT
 Reset frequeny         DirectResetFreq ....    20
 Integral Threshold     Thresh          ....  2.500e-11 Eh
 Primitive CutOff       TCut            ....  2.500e-12 Eh

Convergence Tolerance:
 Convergence Check Mode ConvCheckMode   .... Total+1el-Energy
 Convergence forced     ConvForced      .... 0
 Energy Change          TolE            ....  1.000e-08 Eh
 1-El. energy change                    ....  1.000e-05 Eh
 Orbital Gradient       TolG            ....  1.000e-05
 Orbital Rotation angle TolX            ....  1.000e-05
 DIIS Error             TolErr          ....  5.000e-07


Diagonalization of the overlap matrix:
Smallest eigenvalue                        ... 5.012e-04
Time for diagonalization                   ...    0.008 sec
Threshold for overlap eigenvalues          ... 1.000e-08
Number of eigenvalues below threshold      ... 0
Time for construction of square roots      ...    0.003 sec
Total time needed                          ...    0.011 sec

-------------------
DFT GRID GENERATION
-------------------

General Integration Accuracy     IntAcc      ...  4.340
Radial Grid Type                 RadialGrid  ... Gauss-Chebyshev
Angular Grid (max. acc.)         AngularGrid ... Lebedev-110
Angular grid pruning method      GridPruning ... 3 (G Style)
Weight generation scheme         WeightScheme... Becke
Basis function cutoff            BFCut       ...    1.0000e-11
Integration weight cutoff        WCut        ...    1.0000e-14
Grids for H and He will be reduced by one unit

# of grid points (after initial pruning)     ...  57174 (   0.0 sec)
# of grid points (after weights+screening)   ...  51101 (   0.4 sec)
nearest neighbour list constructed           ...    0.0 sec
Grid point re-assignment to atoms done       ...    0.0 sec
Grid point division into batches done        ...    0.0 sec
Reduced shell lists constructed in    1.3 sec

Total number of grid points                  ...    51101
Total number of batches                      ...      818
Average number of points per batch           ...       62
Average number of grid points per atom       ...     1217
Average number of shells per batch           ...    71.26 (42.67%)
Average number of basis functions per batch  ...   127.85 (46.15%)
Average number of large shells per batch     ...    46.06 (64.64%)
Average number of large basis fcns per batch ...    84.31 (65.94%)
Maximum spatial batch extension              ...  20.39, 22.17, 19.74 au
Average spatial batch extension              ...   3.54,  3.44,  3.30 au

Time for grid setup =    1.762 sec

------------------------------
INITIAL GUESS: MODEL POTENTIAL
------------------------------
Loading Hartree-Fock densities                     ... done
Calculating cut-offs                               ... done
Setting up the integral package                    ... done
Initializing the effective Hamiltonian             ... done
Starting the Coulomb interaction                   ... done (   1.9 sec)
Reading the grid                                   ... done
Mapping shells                                     ... done
Starting the XC term evaluation                    ... done (   1.1 sec)
  promolecular density results
     # of electrons  =    198.009574114
     EX              =   -180.548245923
     EC              =     -6.958442073
     EX+EC           =   -187.506687997
Transforming the Hamiltonian                       ... done (   0.0 sec)
Diagonalizing the Hamiltonian                      ... done (   0.0 sec)
Back transforming the eigenvectors                 ... done (   0.0 sec)
Now organizing SCF variables                       ... done
                      ------------------
                      INITIAL GUESS DONE (   4.8 sec)
                      ------------------
--------------
SCF ITERATIONS
--------------
ITER       Energy         Delta-E        Max-DP      RMS-DP      [F,P]     Damp
               ***  Starting incremental Fock matrix formation  ***
  0  -1636.1420205159   0.000000000000 0.29207315  0.00462732  0.2850022 0.7000
  1  -1636.4744350469  -0.332414531017 0.11273410  0.00237097  0.0918059 0.7000
                               ***Turning on DIIS***
  2  -1636.5793447444  -0.104909697517 0.06479996  0.00268376  0.0437736 0.0000
  3  -1636.7898872108  -0.210542466386 0.08404301  0.00163532  0.0487653 0.0000
  4  -1636.8171136626  -0.027226451803 0.03506992  0.00060713  0.0310671 0.0000
                      *** Initiating the SOSCF procedure ***
                           *** Shutting down DIIS ***
                      *** Re-Reading the Fockian *** 
                      *** Removing any level shift *** 
ITER      Energy       Delta-E        Grad      Rot      Max-DP    RMS-DP
  5  -1636.82323555  -0.0061218888  0.000812  0.000812  0.005880  0.000157
               *** Restarting incremental Fock matrix formation ***
  6  -1636.82342775  -0.0001921985  0.000678  0.004898  0.004547  0.000116
  7  -1636.82332385   0.0001039009  0.002231  0.004574  0.005122  0.000086
  8  -1636.82345666  -0.0001328075  0.000191  0.000826  0.001544  0.000037
  9  -1636.82344876   0.0000079010  0.000378  0.000529  0.000935  0.000024
 10  -1636.82345940  -0.0000106447  0.000074  0.000433  0.000233  0.000008
 11  -1636.82345912   0.0000002758  0.000125  0.000280  0.000179  0.000005
 12  -1636.82345956  -0.0000004337  0.000011  0.000053  0.000148  0.000003
 13  -1636.82345953   0.0000000303  0.000026  0.000040  0.000118  0.000002
 14  -1636.82345957  -0.0000000407  0.000003  0.000011  0.000023  0.000001
 15  -1636.82345957   0.0000000024  0.000004  0.000007  0.000013  0.000000
                  ***Gradient check signals convergence***
              ***Rediagonalizing the Fockian in SOSCF/NRSCF***

               *****************************************************
               *                     SUCCESS                       *
               *           SCF CONVERGED AFTER  16 CYCLES          *
               *****************************************************

Setting up the final grid:

General Integration Accuracy     IntAcc      ...  4.670
Radial Grid Type                 RadialGrid  ... Gauss-Chebyshev
Angular Grid (max. acc.)         AngularGrid ... Lebedev-302
Angular grid pruning method      GridPruning ... 3 (G Style)
Weight generation scheme         WeightScheme... Becke
Basis function cutoff            BFCut       ...    1.0000e-11
Integration weight cutoff        WCut        ...    1.0000e-14
Grids for H and He will be reduced by one unit

# of grid points (after initial pruning)     ... 219160 (   0.1 sec)
# of grid points (after weights+screening)   ... 191364 (   1.5 sec)
nearest neighbour list constructed           ...    0.0 sec
Grid point re-assignment to atoms done       ...    0.0 sec
Grid point division into batches done        ...    0.5 sec
Reduced shell lists constructed in    4.9 sec

Total number of grid points                  ...   191364
Total number of batches                      ...     3015
Average number of points per batch           ...       63
Average number of grid points per atom       ...     4556
Average number of shells per batch           ...    64.16 (38.42%)
Average number of basis functions per batch  ...   115.41 (41.66%)
Average number of large shells per batch     ...    41.12 (64.09%)
Average number of large basis fcns per batch ...    75.55 (65.46%)
Maximum spatial batch extension              ...  20.58, 19.93, 20.22 au
Average spatial batch extension              ...   2.34,  2.27,  2.23 au

Final grid set up in    6.5 sec
Final integration                            ... done (   3.4 sec)
Change in XC energy                          ...     0.000472568
Integrated number of electrons               ...   197.999917447
Previous integrated no of electrons          ...   198.008707202

----------------
TOTAL SCF ENERGY
----------------

Total Energy       :        -1636.82298700 Eh          -44540.21786 eV

Components:
Nuclear Repulsion  :         2483.83231874 Eh           67588.51353 eV
Electronic Energy  :        -4120.65530574 Eh         -112128.73138 eV
One Electron Energy:        -7172.89816577 Eh         -195184.48208 eV
Two Electron Energy:         3052.24286003 Eh           83055.75069 eV

Virial components:
Potential Energy   :        -3267.10031755 Eh          -88902.31935 eV
Kinetic Energy     :         1630.27733055 Eh           44362.10149 eV
Virial Ratio       :            2.00401506


DFT components:
N(Alpha)           :       98.999958723387 electrons
N(Beta)            :       98.999958723387 electrons
N(Total)           :      197.999917446775 electrons
E(X)               :     -145.020766535542 Eh       
E(C)               :       -8.171006143128 Eh       
E(XC)              :     -153.191772678669 Eh       

---------------
SCF CONVERGENCE
---------------

  Last Energy change         ...   -2.4106e-09  Tolerance :   1.0000e-08
  Last MAX-Density change    ...    3.3432e-06  Tolerance :   1.0000e-07
  Last RMS-Density change    ...    1.1034e-07  Tolerance :   5.0000e-09
  Last Orbital Gradient      ...    9.7856e-07  Tolerance :   1.0000e-05
  Last Orbital Rotation      ...    3.5108e-06  Tolerance :   1.0000e-05

             **** THE GBW FILE WAS UPDATED (orca_input.gbw) ****
             **** DENSITY FILE WAS UPDATED (orca_input.scfp.tmp) ****
             **** ENERGY FILE WAS UPDATED (orca_input.en.tmp) ****
----------------
ORBITAL ENERGIES
----------------

  NO   OCC          E(Eh)            E(eV) 
   0   2.0000    -101.542319     -2763.1070 
   1   2.0000     -19.146350      -520.9987 
   2   2.0000     -19.124398      -520.4013 
   3   2.0000     -19.122556      -520.3512 
   4   2.0000     -14.431731      -392.7074 
   5   2.0000     -14.415826      -392.2746 
   6   2.0000     -14.403719      -391.9451 
   7   2.0000     -14.343547      -390.3078 
   8   2.0000     -10.328369      -281.0492 
   9   2.0000     -10.311457      -280.5890 
  10   2.0000     -10.288994      -279.9778 
  11   2.0000     -10.280485      -279.7462 
  12   2.0000     -10.274434      -279.5816 
  13   2.0000     -10.273328      -279.5515 
  14   2.0000     -10.263455      -279.2828 
  15   2.0000     -10.246343      -278.8172 
  16   2.0000     -10.234215      -278.4871 
  17   2.0000     -10.224970      -278.2356 
  18   2.0000     -10.224544      -278.2240 
  19   2.0000     -10.216989      -278.0184 
  20   2.0000     -10.216320      -278.0002 
  21   2.0000     -10.214378      -277.9474 
  22   2.0000     -10.213819      -277.9322 
  23   2.0000     -10.209895      -277.8254 
  24   2.0000     -10.208387      -277.7843 
  25   2.0000     -10.183684      -277.1121 
  26   2.0000     -10.172583      -276.8101 
  27   2.0000      -9.477316      -257.8909 
  28   2.0000      -7.240893      -197.0347 
  29   2.0000      -7.229679      -196.7296 
  30   2.0000      -7.229244      -196.7177 
  31   2.0000      -1.098505       -29.8918 
  32   2.0000      -1.075505       -29.2660 
  33   2.0000      -1.058308       -28.7980 
  34   2.0000      -1.025831       -27.9143 
  35   2.0000      -1.002786       -27.2872 
  36   2.0000      -0.959869       -26.1194 
  37   2.0000      -0.920811       -25.0565 
  38   2.0000      -0.866091       -23.5675 
  39   2.0000      -0.860856       -23.4251 
  40   2.0000      -0.837785       -22.7973 
  41   2.0000      -0.817855       -22.2550 
  42   2.0000      -0.802517       -21.8376 
  43   2.0000      -0.781287       -21.2599 
  44   2.0000      -0.772094       -21.0097 
  45   2.0000      -0.769267       -20.9328 
  46   2.0000      -0.721363       -19.6293 
  47   2.0000      -0.693102       -18.8603 
  48   2.0000      -0.680333       -18.5128 
  49   2.0000      -0.650294       -17.6954 
  50   2.0000      -0.644319       -17.5328 
  51   2.0000      -0.632474       -17.2105 
  52   2.0000      -0.626151       -17.0384 
  53   2.0000      -0.600743       -16.3470 
  54   2.0000      -0.594606       -16.1800 
  55   2.0000      -0.585785       -15.9400 
  56   2.0000      -0.561419       -15.2770 
  57   2.0000      -0.543331       -14.7848 
  58   2.0000      -0.535474       -14.5710 
  59   2.0000      -0.525772       -14.3070 
  60   2.0000      -0.510665       -13.8959 
  61   2.0000      -0.502101       -13.6629 
  62   2.0000      -0.489911       -13.3312 
  63   2.0000      -0.487992       -13.2789 
  64   2.0000      -0.480339       -13.0707 
  65   2.0000      -0.475123       -12.9288 
  66   2.0000      -0.463837       -12.6217 
  67   2.0000      -0.459024       -12.4907 
  68   2.0000      -0.456968       -12.4347 
  69   2.0000      -0.445154       -12.1133 
  70   2.0000      -0.438895       -11.9429 
  71   2.0000      -0.431870       -11.7518 
  72   2.0000      -0.428680       -11.6650 
  73   2.0000      -0.420539       -11.4435 
  74   2.0000      -0.420421       -11.4402 
  75   2.0000      -0.416745       -11.3402 
  76   2.0000      -0.410576       -11.1723 
  77   2.0000      -0.403082       -10.9684 
  78   2.0000      -0.397701       -10.8220 
  79   2.0000      -0.396526       -10.7900 
  80   2.0000      -0.387552       -10.5458 
  81   2.0000      -0.384274       -10.4566 
  82   2.0000      -0.381851       -10.3907 
  83   2.0000      -0.364669        -9.9232 
  84   2.0000      -0.356130        -9.6908 
  85   2.0000      -0.346559        -9.4303 
  86   2.0000      -0.342996        -9.3334 
  87   2.0000      -0.330447        -8.9919 
  88   2.0000      -0.327062        -8.8998 
  89   2.0000      -0.296726        -8.0743 
  90   2.0000      -0.293113        -7.9760 
  91   2.0000      -0.290349        -7.9008 
  92   2.0000      -0.275187        -7.4882 
  93   2.0000      -0.269181        -7.3248 
  94   2.0000      -0.264352        -7.1934 
  95   2.0000      -0.256773        -6.9871 
  96   2.0000      -0.240178        -6.5356 
  97   2.0000      -0.237730        -6.4690 
  98   2.0000      -0.221722        -6.0334 
  99   0.0000      -0.082372        -2.2415 
 100   0.0000      -0.052464        -1.4276 
 101   0.0000      -0.033554        -0.9130 
 102   0.0000      -0.027146        -0.7387 
 103   0.0000      -0.017575        -0.4783 
 104   0.0000       0.011751         0.3198 
 105   0.0000       0.032029         0.8716 
 106   0.0000       0.035167         0.9569 
 107   0.0000       0.054571         1.4850 
 108   0.0000       0.068355         1.8600 
 109   0.0000       0.089534         2.4364 
 110   0.0000       0.093717         2.5502 
 111   0.0000       0.106378         2.8947 
 112   0.0000       0.112159         3.0520 
 113   0.0000       0.116897         3.1809 
 114   0.0000       0.124819         3.3965 
 115   0.0000       0.131103         3.5675 
 116   0.0000       0.132101         3.5947 
 117   0.0000       0.138259         3.7622 
 118   0.0000       0.155983         4.2445 
 119   0.0000       0.158472         4.3122 
 120   0.0000       0.159578         4.3423 
 121   0.0000       0.166035         4.5181 
 122   0.0000       0.171197         4.6585 
 123   0.0000       0.172989         4.7073 
 124   0.0000       0.179863         4.8943 
 125   0.0000       0.185057         5.0357 
 126   0.0000       0.188261         5.1228 
 127   0.0000       0.194997         5.3061 
 128   0.0000       0.210106         5.7173 
 129   0.0000       0.213970         5.8224 
 130   0.0000       0.225403         6.1335 
 131   0.0000       0.228948         6.2300 
 132   0.0000       0.239797         6.5252 
 133   0.0000       0.242921         6.6102 
 134   0.0000       0.260424         7.0865 
 135   0.0000       0.261442         7.1142 
 136   0.0000       0.278983         7.5915 
 137   0.0000       0.287599         7.8260 
 138   0.0000       0.299279         8.1438 
 139   0.0000       0.305012         8.2998 
 140   0.0000       0.315437         8.5835 
 141   0.0000       0.316891         8.6231 
 142   0.0000       0.336372         9.1531 
 143   0.0000       0.344151         9.3648 
 144   0.0000       0.358605         9.7581 
 145   0.0000       0.366188         9.9645 
 146   0.0000       0.373287        10.1576 
 147   0.0000       0.387830        10.5534 
 148   0.0000       0.415871        11.3164 
 149   0.0000       0.424358        11.5474 
 150   0.0000       0.428121        11.6498 
 151   0.0000       0.432950        11.7812 
 152   0.0000       0.451087        12.2747 
 153   0.0000       0.464477        12.6391 
 154   0.0000       0.471857        12.8399 
 155   0.0000       0.487826        13.2744 
 156   0.0000       0.494662        13.4604 
 157   0.0000       0.500295        13.6137 
 158   0.0000       0.505278        13.7493 
 159   0.0000       0.511658        13.9229 
 160   0.0000       0.520300        14.1581 
 161   0.0000       0.522973        14.2308 
 162   0.0000       0.533706        14.5229 
 163   0.0000       0.536708        14.6046 
 164   0.0000       0.545934        14.8556 
 165   0.0000       0.560994        15.2654 
 166   0.0000       0.564121        15.3505 
 167   0.0000       0.565632        15.3916 
 168   0.0000       0.576434        15.6856 
 169   0.0000       0.582744        15.8573 
 170   0.0000       0.587794        15.9947 
 171   0.0000       0.590640        16.0721 
 172   0.0000       0.593946        16.1621 
 173   0.0000       0.596020        16.2185 
 174   0.0000       0.599523        16.3138 
 175   0.0000       0.603427        16.4201 
 176   0.0000       0.613950        16.7064 
 177   0.0000       0.615898        16.7594 
 178   0.0000       0.619734        16.8638 
 179   0.0000       0.626807        17.0563 
 180   0.0000       0.631665        17.1885 
 181   0.0000       0.635769        17.3001 
 182   0.0000       0.642815        17.4919 
 183   0.0000       0.643851        17.5201 
 184   0.0000       0.652625        17.7588 
 185   0.0000       0.660919        17.9845 
 186   0.0000       0.665206        18.1012 
 187   0.0000       0.673877        18.3371 
 188   0.0000       0.677726        18.4419 
 189   0.0000       0.685568        18.6552 
 190   0.0000       0.694330        18.8937 
 191   0.0000       0.708364        19.2756 
 192   0.0000       0.714157        19.4332 
 193   0.0000       0.715761        19.4769 
 194   0.0000       0.725816        19.7504 
 195   0.0000       0.753526        20.5045 
 196   0.0000       0.763019        20.7628 
 197   0.0000       0.774838        21.0844 
 198   0.0000       0.780777        21.2460 
 199   0.0000       0.792043        21.5526 
 200   0.0000       0.793210        21.5844 
 201   0.0000       0.808470        21.9996 
 202   0.0000       0.813850        22.1460 
 203   0.0000       0.819960        22.3122 
 204   0.0000       0.827258        22.5108 
 205   0.0000       0.833724        22.6868 
 206   0.0000       0.841675        22.9032 
 207   0.0000       0.846577        23.0365 
 208   0.0000       0.848246        23.0820 
 209   0.0000       0.854555        23.2536 
 210   0.0000       0.857929        23.3454 
 211   0.0000       0.870550        23.6889 
 212   0.0000       0.873075        23.7576 
 213   0.0000       0.881316        23.9818 
 214   0.0000       0.890316        24.2267 
 215   0.0000       0.893731        24.3196 
 216   0.0000       0.908117        24.7111 
 217   0.0000       0.912294        24.8248 
 218   0.0000       0.923074        25.1181 
 219   0.0000       0.936282        25.4775 
 220   0.0000       0.951233        25.8844 
 221   0.0000       0.952802        25.9271 
 222   0.0000       0.963711        26.2239 
 223   0.0000       0.968795        26.3622 
 224   0.0000       0.979493        26.6534 
 225   0.0000       0.983175        26.7535 
 226   0.0000       0.998012        27.1573 
 227   0.0000       1.005058        27.3490 
 228   0.0000       1.015481        27.6326 
 229   0.0000       1.029430        28.0122 
 230   0.0000       1.038298        28.2535 
 231   0.0000       1.044714        28.4281 
 232   0.0000       1.048777        28.5387 
 233   0.0000       1.061519        28.8854 
 234   0.0000       1.077692        29.3255 
 235   0.0000       1.078310        29.3423 
 236   0.0000       1.092876        29.7387 
 237   0.0000       1.104652        30.0591 
 238   0.0000       1.115415        30.3520 
 239   0.0000       1.117316        30.4037 
 240   0.0000       1.126496        30.6535 
 241   0.0000       1.142474        31.0883 
 242   0.0000       1.149213        31.2717 
 243   0.0000       1.160176        31.5700 
 244   0.0000       1.169099        31.8128 
 245   0.0000       1.183013        32.1914 
 246   0.0000       1.191596        32.4250 
 247   0.0000       1.208050        32.8727 
 248   0.0000       1.236335        33.6424 
 249   0.0000       1.266394        34.4603 
 250   0.0000       1.285326        34.9755 
 251   0.0000       1.294023        35.2122 
 252   0.0000       1.299631        35.3648 
 253   0.0000       1.324489        36.0412 
 254   0.0000       1.341075        36.4925 
 255   0.0000       1.375896        37.4400 
 256   0.0000       1.391747        37.8714 
 257   0.0000       1.417433        38.5703 
 258   0.0000       1.440393        39.1951 
 259   0.0000       1.445401        39.3314 
 260   0.0000       1.458314        39.6827 
 261   0.0000       1.465348        39.8742 
 262   0.0000       1.520185        41.3663 
 263   0.0000       1.529250        41.6130 
 264   0.0000       1.562030        42.5050 
 265   0.0000       1.606722        43.7211 
 266   0.0000       1.638280        44.5799 
 267   0.0000       1.663975        45.2791 
 268   0.0000       1.690057        45.9888 
 269   0.0000       1.780302        48.4445 
 270   0.0000       1.857172        50.5362 
 271   0.0000       1.860641        50.6306 
 272   0.0000       1.898004        51.6473 
 273   0.0000       1.929201        52.4962 
 274   0.0000       2.091970        56.9254 
 275   0.0000       2.131671        58.0057 
 276   0.0000       2.152453        58.5712 
------------------
MOLECULAR ORBITALS
------------------
                      0         1         2         3         4         5   
                 -101.54232 -19.14635 -19.12440 -19.12256 -14.43173 -14.41583
                   2.00000   2.00000   2.00000   2.00000   2.00000   2.00000
                  --------  --------  --------  --------  --------  --------
  0C   1s        -0.000022 -0.000003  0.000026  0.000000 -0.000007  0.000001
  0C   2s        -0.000147 -0.000017  0.000090  0.000034 -0.000065 -0.000149
  0C   1pz       -0.000011  0.000022 -0.000255  0.000120 -0.000015 -0.000265
  0C   1px        0.000019  0.000013 -0.000039 -0.000022 -0.000005 -0.000124
  0C   1py        0.000025  0.000018 -0.000057 -0.000011 -0.000009 -0.000206
  0C   3s         0.003044  0.000605 -0.008637  0.001578  0.000344 -0.008126
  0C   2pz       -0.000630 -0.000522 -0.001211 -0.000580 -0.000178 -0.000138
  0C   2px        0.000736  0.000404 -0.002462  0.000470  0.000284 -0.001702
  0C   2py        0.000972  0.000524 -0.003615  0.000586  0.000373 -0.002340
  1C   1s         0.000003  0.000006  0.000026 -0.000012 -0.000007  0.000065
  1C   2s         0.000014  0.000057  0.000185 -0.000068 -0.000030  0.000455
  1C   1pz       -0.000043 -0.000018  0.000269  0.000028 -0.000015  0.000315
  1C   1px        0.000003  0.000023  0.000109 -0.000042  0.000010 -0.000043
  1C   1py        0.000002  0.000030  0.000172 -0.000063  0.000007 -0.000046
  1C   3s        -0.000269 -0.000454 -0.006194  0.001833  0.000771 -0.004705
  1C   2pz        0.001655  0.002002 -0.011543  0.001261  0.001128 -0.013513
  1C   2px        0.000093 -0.001211 -0.004341  0.001268 -0.000548 -0.001265
  1C   2py        0.000232 -0.001514 -0.006388  0.001765 -0.000648 -0.002538
  2C   1s        -0.000019 -0.000001  0.000001  0.000014 -0.000006  0.000074
  2C   2s        -0.000130  0.000097  0.000241  0.000133  0.000054 -0.000039
  2C   1pz        0.000005  0.000186  0.000141  0.000067  0.000085 -0.000380
  2C   1px       -0.000022  0.000061 -0.000111  0.000015  0.000041 -0.000099
  2C   1py       -0.000033  0.000086 -0.000129  0.000012  0.000055 -0.000162
  2C   3s         0.002431  0.000975  0.004545 -0.000868  0.001373  0.009652
  2C   2pz       -0.002049 -0.001424  0.004560 -0.000676  0.000119  0.020219
  2C   2px        0.000427 -0.001406 -0.001335  0.001045 -0.000076  0.002474
  2C   2py        0.000477 -0.001960 -0.001759  0.001461 -0.000015  0.004605
  3C   1s         0.000021  0.000007  0.000001  0.000005  0.000001 -0.000066
  3C   2s         0.000128  0.000052  0.000063  0.000033 -0.000008 -0.000452
  3C   1pz        0.000119  0.000018  0.000040  0.000015 -0.000010  0.000250
  3C   1px       -0.000017  0.000014 -0.000033  0.000008  0.000002 -0.000025
  3C   1py       -0.000013  0.000018 -0.000046  0.000016  0.000000 -0.000007
  3C   3s        -0.003102 -0.000501  0.002287 -0.000733 -0.000246  0.011278
  3C   2pz       -0.001675 -0.000057  0.001166 -0.000732 -0.000151  0.000569
  3C   2px        0.001095  0.000425 -0.000335 -0.000117  0.000077 -0.004114
  3C   2py        0.001401  0.000566 -0.000308 -0.000239  0.000080 -0.005696
  4C   1s        -0.000006  0.000002  0.000017 -0.000003 -0.000004  0.000012
  4C   2s        -0.000235  0.000029  0.000127 -0.000026 -0.000034  0.000034
  4C   1pz       -0.000040  0.000027  0.000046 -0.000027 -0.000025 -0.000217
  4C   1px        0.000015  0.000006 -0.000002 -0.000003  0.000004 -0.000026
  4C   1py        0.000017  0.000013  0.000009 -0.000007  0.000008 -0.000057
  4C   3s         0.002212  0.000385 -0.001756  0.000011  0.000209 -0.005828
  4C   2pz        0.001769  0.000069 -0.000678  0.000143  0.000234 -0.002026
  4C   2px       -0.000562 -0.000023  0.000772 -0.000224 -0.000109 -0.000359
  4C   2py       -0.000644 -0.000027  0.000963 -0.000293 -0.000139 -0.000642
  5C   1s         0.000018  0.000003 -0.000020  0.000012  0.000000 -0.000034
  5C   2s         0.000112  0.000017 -0.000086  0.000088 -0.000008 -0.000286
  5C   1pz        0.000112 -0.000019  0.000148 -0.000017 -0.000022 -0.000065
  5C   1px       -0.000049  0.000007 -0.000058  0.000007 -0.000003 -0.000049
  5C   1py       -0.000060  0.000010 -0.000073  0.000005 -0.000004 -0.000068
  5C   3s        -0.002645 -0.000701  0.003334 -0.001316 -0.000451  0.003199
  5C   2pz       -0.002102 -0.000271  0.001162 -0.000578 -0.000128  0.002193
  5C   2px       -0.000206  0.000011  0.000843 -0.000045 -0.000048  0.000454
  5C   2py       -0.000444 -0.000013  0.001308 -0.000092 -0.000079  0.000767
  6C   1s         0.000007  0.000022 -0.000439  0.000066  0.000009 -0.000125
  6C   2s         0.000047  0.000247 -0.002204  0.000363  0.000098 -0.000772
  6C   1pz        0.000036  0.000031  0.000048 -0.000218 -0.000045 -0.000060
  6C   1px       -0.000001  0.000020 -0.000257 -0.000013 -0.000010  0.000154
  6C   1py        0.000001  0.000038 -0.000325 -0.000013  0.000007  0.000218
  6C   3s        -0.001146  0.000085  0.000744 -0.009614  0.000519  0.016728
  6C   2pz        0.000071  0.002324 -0.003585 -0.004021  0.002122 -0.000918
  6C   2px       -0.000402 -0.000358  0.015626 -0.003116 -0.000320  0.005027
  6C   2py       -0.000508 -0.000491  0.019377 -0.003953 -0.000433  0.006100
  7C   1s        -0.000003 -0.000033  0.000027  0.000012 -0.000059  0.000070
  7C   2s        -0.000023 -0.000067  0.000164  0.000088 -0.000388  0.000450
  7C   1pz        0.000010 -0.000017 -0.000334  0.000262 -0.000036 -0.000326
  7C   1px        0.000000  0.000156  0.000099  0.000265  0.000010 -0.000087
  7C   1py       -0.000002  0.000185  0.000133  0.000380 -0.000012 -0.000126
  7C   3s         0.000203  0.010415 -0.007752 -0.006655  0.009713 -0.005364
  7C   2pz       -0.000402  0.002507  0.014226 -0.009520  0.001473  0.014818
  7C   2px       -0.000207  0.003863 -0.002845 -0.008109  0.003905  0.001075
  7C   2py       -0.000258  0.005276 -0.004075 -0.010790  0.005158  0.001170
  8C   1s        -0.000004  0.000080 -0.000004 -0.000029  0.000075  0.000095
  8C   2s        -0.000056  0.000819  0.000212 -0.000106  0.000558 -0.000092
  8C   1pz        0.000034  0.000254 -0.000106  0.000202  0.000055  0.000554
  8C   1px        0.000005 -0.000070 -0.000132 -0.000143 -0.000146 -0.000074
  8C   1py        0.000006 -0.000141 -0.000174 -0.000189 -0.000285 -0.000106
  8C   3s        -0.000127 -0.008301  0.007108  0.009524 -0.007416  0.012037
  8C   2pz        0.000120 -0.012690 -0.002606  0.003393 -0.006457 -0.021441
  8C   2px       -0.000176  0.005230 -0.002355 -0.002576  0.004572 -0.000882
  8C   2py       -0.000253  0.007637 -0.003465 -0.003740  0.006820 -0.001361
  9N   1s        -0.000003  0.000055  0.000037  0.000005  0.000115  0.995533
  9N   2s        -0.000022  0.000544  0.000337  0.000092  0.000156  0.035353
  9N   1pz       -0.000019  0.000074  0.000001 -0.000019 -0.000227  0.000220
  9N   1px        0.000002 -0.000033 -0.000020 -0.000036 -0.000078 -0.000522
  9N   1py        0.000003  0.000006 -0.000028 -0.000057 -0.000066 -0.000718
  9N   3s         0.000365 -0.006431 -0.003629  0.000613 -0.003968 -0.048162
  9N   2pz        0.000299 -0.004025 -0.000126  0.000727 -0.000294 -0.002097
  9N   2px       -0.000162  0.000753  0.001026  0.000323  0.000531  0.007371
  9N   2py       -0.000219  0.000754  0.001515  0.000510  0.000513  0.010494
 10C   1s        -0.000001  0.000029  0.000039 -0.000372  0.000030 -0.000001
 10C   2s        -0.000009  0.000253  0.000224 -0.001537  0.000024 -0.000233
 10C   1pz       -0.000008  0.000078  0.000259  0.000036 -0.000106  0.000306
 10C   1px       -0.000000  0.000013 -0.000004 -0.000168 -0.000099 -0.000054
 10C   1py        0.000001 -0.000015 -0.000004 -0.000255 -0.000233 -0.000109
 10C   3s         0.000141 -0.002355 -0.007973 -0.004672 -0.002618 -0.007007
 10C   2pz        0.000020  0.000740  0.004296 -0.006045  0.000768  0.002333
 10C   2px        0.000139 -0.001299 -0.001541  0.011814 -0.001810 -0.000878
 10C   2py        0.000177 -0.001885 -0.002650  0.016846 -0.002048 -0.001471
 11N   1s         0.000001 -0.000009 -0.000012  0.000074  0.000654 -0.000349
 11N   2s         0.000011  0.000125 -0.000095  0.000861 -0.000788 -0.000192
 11N   1pz        0.000001 -0.000188 -0.000031 -0.000140  0.000093  0.000055
 11N   1px        0.000001  0.000130 -0.000053 -0.000059 -0.000037 -0.000000
 11N   1py        0.000001  0.000185 -0.000076 -0.000053 -0.000146 -0.000012
 11N   3s        -0.000106  0.002822  0.001260 -0.006089  0.007850  0.001503
 11N   2pz        0.000039 -0.000334 -0.000684  0.004169 -0.002314 -0.000638
 11N   2px        0.000028 -0.000084  0.000310 -0.000123  0.001640  0.000054
 11N   2py        0.000037  0.000736  0.000700 -0.000970  0.003121  0.000386
 12N   1s        -0.000000  0.000068  0.000004 -0.000026  0.995477 -0.000069
 12N   2s         0.000001  0.000846  0.000018 -0.000104  0.034315  0.000168
 12N   1pz       -0.000001 -0.000272 -0.000007 -0.000044 -0.000291  0.000149
 12N   1px       -0.000002  0.000014  0.000018 -0.000160  0.000628  0.000025
 12N   1py       -0.000003 -0.000186  0.000003 -0.000156 -0.000734  0.000001
 12N   3s         0.000019 -0.006846 -0.000326  0.003436 -0.037534 -0.003404
 12N   2pz        0.000005  0.005147 -0.000308 -0.000172  0.005300  0.000540
 12N   2px        0.000024  0.001516  0.000182  0.000421 -0.002805 -0.000051
 12N   2py        0.000032  0.003871  0.000541 -0.000606  0.001694  0.000522
 13C   1s        -0.000002 -0.000332  0.000009  0.000023 -0.000014 -0.000077
 13C   2s        -0.000018 -0.001201  0.000143  0.000175 -0.001210 -0.000602
 13C   1pz       -0.000001  0.000081 -0.000033  0.000034 -0.000302 -0.000015
 13C   1px        0.000002  0.000160 -0.000030 -0.000023  0.000102 -0.000082
 13C   1py        0.000003  0.000198 -0.000063  0.000006  0.000060 -0.000138
 13C   3s         0.000129 -0.005603  0.001161 -0.001633  0.012337  0.007478
 13C   2pz       -0.000119  0.006977 -0.000988 -0.000996  0.012757  0.000002
 13C   2px       -0.000042 -0.012118  0.000157  0.001136 -0.005068 -0.004274
 13C   2py       -0.000061 -0.017653  0.000203  0.001706 -0.007066 -0.006056
 14O   1s        -0.000000 -0.995218 -0.000099 -0.000203 -0.000035 -0.000025
 14O   2s        -0.000003 -0.031208  0.000061  0.000120 -0.000768 -0.000436
 14O   1pz       -0.000005 -0.000534  0.000008  0.000007  0.000096 -0.000054
 14O   1px        0.000001  0.001288  0.000002  0.000005  0.000041 -0.000010
 14O   1py        0.000001  0.002050  0.000003 -0.000000  0.000062 -0.000007
 14O   3s         0.000011  0.030435 -0.000485 -0.000962  0.004548  0.003194
 14O   2pz        0.000028  0.001916 -0.000018 -0.000054 -0.001558  0.000733
 14O   2px       -0.000002 -0.004505  0.000070  0.000077 -0.000631 -0.000280
 14O   2py       -0.000003 -0.007254  0.000118  0.000142 -0.001034 -0.000530
 15O   1s        -0.000001  0.000218  0.002483 -0.995206  0.000001 -0.000003
 15O   2s        -0.000016  0.000141  0.000195 -0.031113 -0.000045 -0.000084
 15O   1pz       -0.000002  0.000008  0.000058  0.000874  0.000001  0.000044
 15O   1px        0.000001 -0.000019  0.000005 -0.001308 -0.000073 -0.000001
 15O   1py        0.000001 -0.000006  0.000010 -0.001970 -0.000032 -0.000003
 15O   3s         0.000109 -0.000971 -0.001210  0.029696 -0.000683  0.000120
 15O   2pz       -0.000017  0.000036 -0.000488 -0.003453  0.000130 -0.000319
 15O   2px        0.000007 -0.000025 -0.000221  0.004210  0.000284  0.000059
 15O   2py        0.000016 -0.000104 -0.000266  0.006477  0.000059  0.000116
 16O   1s         0.000001  0.000108 -0.995218 -0.002470  0.000003 -0.000013
 16O   2s         0.000017  0.000074 -0.031286  0.000019  0.000035 -0.000243
[...]
--------------------------------
  0 C s       :     3.233629  s :     3.233629
      pz      :     0.919343  p :     2.927507
      px      :     0.985726
      py      :     1.022438
  1 C s       :     3.153900  s :     3.153900
      pz      :     0.923129  p :     2.796692
      px      :     0.960086
      py      :     0.913477
  2 C s       :     3.055504  s :     3.055504
      pz      :     0.759845  p :     2.601932
      px      :     0.941337
      py      :     0.900751
  3 C s       :     3.149211  s :     3.149211
      pz      :     0.872725  p :     2.940815
      px      :     1.038320
      py      :     1.029770
  4 C s       :     3.219526  s :     3.219526
      pz      :     0.958978  p :     3.037562
      px      :     1.037051
      py      :     1.041533
  5 C s       :     3.200453  s :     3.200453
      pz      :     0.975104  p :     2.889291
      px      :     0.966345
      py      :     0.947842
  6 C s       :     3.101563  s :     3.101563
      pz      :     1.040237  p :     2.671108
      px      :     0.828709
      py      :     0.802163
  7 C s       :     3.142663  s :     3.142663
      pz      :     0.922272  p :     2.769600
      px      :     0.958474
      py      :     0.888854
  8 C s       :     3.088390  s :     3.088390
      pz      :     0.711260  p :     2.624393
      px      :     0.957221
      py      :     0.955912
  9 N s       :     3.777345  s :     3.777345
      pz      :     1.213741  p :     4.085049
      px      :     1.479851
      py      :     1.391456
 10 C s       :     2.958055  s :     2.958055
      pz      :     1.003942  p :     2.577199
      px      :     0.811495
      py      :     0.761761
 11 N s       :     3.589957  s :     3.589957
      pz      :     1.228138  p :     3.899089
      px      :     1.408564
      py      :     1.262387
 12 N s       :     3.598239  s :     3.598239
      pz      :     1.183625  p :     3.813294
      px      :     1.360057
      py      :     1.269612
 13 C s       :     2.938246  s :     2.938246
      pz      :     0.875533  p :     2.559821
      px      :     0.861248
      py      :     0.823041
 14 O s       :     3.973205  s :     3.973205
      pz      :     1.679585  p :     4.508392
      px      :     1.434214
      py      :     1.394594
 15 O s       :     3.951760  s :     3.951760
      pz      :     1.666342  p :     4.452339
      px      :     1.394591
      py      :     1.391406
 16 O s       :     3.963533  s :     3.963533
      pz      :     1.754606  p :     4.433855
      px      :     1.340233
      py      :     1.339016
 17 Cls       :     5.921003  s :     5.921003
      pz      :     3.212756  p :    10.989760
      px      :     3.889699
      py      :     3.887305
 18 C s       :     3.308985  s :     3.308985
      pz      :     0.787482  p :     2.690650
      px      :     0.976701
      py      :     0.926468
 19 C s       :     3.090361  s :     3.090361
      pz      :     0.843606  p :     2.712565
      px      :     0.957438
      py      :     0.911521
 20 C s       :     3.178088  s :     3.178088
      pz      :     0.993447  p :     2.895281
      px      :     0.956243
      py      :     0.945591
 21 C s       :     3.217401  s :     3.217401
      pz      :     0.963114  p :     2.910217
      px      :     0.991338
      py      :     0.955764
 22 C s       :     3.199336  s :     3.199336
      pz      :     0.937491  p :     2.906928
      px      :     0.966168
      py      :     1.003269
 23 C s       :     3.153232  s :     3.153232
      pz      :     1.000752  p :     2.831661
      px      :     0.961820
      py      :     0.869090
 24 N s       :     3.801492  s :     3.801492
      pz      :     1.200487  p :     3.620832
      px      :     1.304010
      py      :     1.116336
 25 C s       :     3.311148  s :     3.311148
      pz      :     1.106453  p :     2.936636
      px      :     0.849440
      py      :     0.980743
 26 C s       :     3.327569  s :     3.327569
      pz      :     1.064235  p :     3.092339
      px      :     1.057832
      py      :     0.970272
 27 H s       :     0.810570  s :     0.810570
 28 H s       :     0.827622  s :     0.827622
 29 H s       :     0.832202  s :     0.832202
 30 H s       :     0.640742  s :     0.640742
 31 H s       :     0.647521  s :     0.647521
 32 H s       :     0.835342  s :     0.835342
 33 H s       :     0.853133  s :     0.853133
 34 H s       :     0.850106  s :     0.850106
 35 H s       :     0.857634  s :     0.857634
 36 H s       :     0.850725  s :     0.850725
 37 H s       :     0.826114  s :     0.826114
 38 H s       :     0.816131  s :     0.816131
 39 H s       :     0.849222  s :     0.849222
 40 H s       :     0.864796  s :     0.864796
 41 H s       :     0.859534  s :     0.859534


                     *******************************
                     * LOEWDIN POPULATION ANALYSIS *
                     *******************************

----------------------
LOEWDIN ATOMIC CHARGES
----------------------
   0 C :   -0.060691
   1 C :   -0.077938
   2 C :    0.080115
   3 C :   -0.143635
   4 C :   -0.052971
   5 C :   -0.121176
   6 C :    0.171331
   7 C :   -0.124478
   8 C :    0.054471
   9 N :   -0.158050
  10 C :    0.213072
  11 N :   -0.181098
  12 N :   -0.044978
  13 C :    0.176706
  14 O :   -0.355624
  15 O :   -0.294465
  16 O :   -0.269219
  17 Cl:    0.014868
  18 C :    0.007442
  19 C :    0.038193
  20 C :   -0.125638
  21 C :   -0.081213
  22 C :   -0.133369
  23 C :   -0.032448
  24 N :   -0.169888
  25 C :   -0.197619
  26 C :   -0.319207
  27 H :    0.151388
  28 H :    0.140839
  29 H :    0.140917
  30 H :    0.266501
  31 H :    0.255849
  32 H :    0.126590
  33 H :    0.130337
  34 H :    0.127978
  35 H :    0.128629
  36 H :    0.121422
  37 H :    0.130568
  38 H :    0.132567
  39 H :    0.119235
  40 H :    0.106561
  41 H :    0.108126

-------------------------------
LOEWDIN REDUCED ORBITAL CHARGES
-------------------------------
  0 C s       :     2.941692  s :     2.941692
      pz      :     1.059181  p :     3.118999
      px      :     1.008021
      py      :     1.051798
  1 C s       :     2.915259  s :     2.915259
      pz      :     1.077296  p :     3.162679
      px      :     1.040471
      py      :     1.044911
  2 C s       :     2.878958  s :     2.878958
      pz      :     1.003567  p :     3.040927
      px      :     1.014823
      py      :     1.022536
  3 C s       :     2.936039  s :     2.936039
      pz      :     1.045286  p :     3.207596
      px      :     1.076360
      py      :     1.085951
  4 C s       :     2.960734  s :     2.960734
      pz      :     0.956927  p :     3.092236
      px      :     1.055158
      py      :     1.080151
  5 C s       :     2.942243  s :     2.942243
      pz      :     1.101932  p :     3.178933
      px      :     1.032159
      py      :     1.044841
  6 C s       :     2.903963  s :     2.903963
      pz      :     1.041609  p :     2.924705
      px      :     0.924350
      py      :     0.958746
  7 C s       :     2.923941  s :     2.923941
      pz      :     1.074268  p :     3.200538
      px      :     1.066129
      py      :     1.060141
  8 C s       :     2.899072  s :     2.899072
      pz      :     0.980549  p :     3.046457
      px      :     1.017489
      py      :     1.048419
  9 N s       :     3.137400  s :     3.137400
      pz      :     1.190976  p :     4.020650
      px      :     1.457041
      py      :     1.372633
 10 C s       :     2.880213  s :     2.880213
      pz      :     1.030697  p :     2.906715
      px      :     0.933682
      py      :     0.942336
 11 N s       :     3.184119  s :     3.184119
      pz      :     1.234325  p :     3.996979
      px      :     1.443734
      py      :     1.318920
 12 N s       :     3.149494  s :     3.149494
      pz      :     1.223781  p :     3.895484
      px      :     1.374907
      py      :     1.296796
 13 C s       :     2.876643  s :     2.876643
      pz      :     0.988597  p :     2.946651
      px      :     0.965202
      py      :     0.992852
 14 O s       :     3.645720  s :     3.645720
      pz      :     1.758484  p :     4.709904
      px      :     1.485334
      py      :     1.466086
 15 O s       :     3.641257  s :     3.641257
      pz      :     1.748621  p :     4.653207
      px      :     1.446055
      py      :     1.458531
 16 O s       :     3.643825  s :     3.643825
      pz      :     1.836607  p :     4.625395
      px      :     1.385805
      py      :     1.402983
 17 Cls       :     5.844421  s :     5.844421
      pz      :     3.335841  p :    11.140711
      px      :     3.901706
      py      :     3.903164
 18 C s       :     2.938966  s :     2.938966
      pz      :     0.941567  p :     3.053592
      px      :     1.073489
      py      :     1.038536
 19 C s       :     2.913006  s :     2.913006
      pz      :     1.016754  p :     3.048801
      px      :     1.009756
      py      :     1.022292
 20 C s       :     2.945388  s :     2.945388
      pz      :     1.074959  p :     3.180250
      px      :     1.036934
      py      :     1.068357
 21 C s       :     2.947433  s :     2.947433
      pz      :     1.055833  p :     3.133780
      px      :     1.019257
      py      :     1.058690
 22 C s       :     2.952220  s :     2.952220
      pz      :     1.061802  p :     3.181149
      px      :     1.039238
      py      :     1.080109
 23 C s       :     2.943845  s :     2.943845
      pz      :     1.066276  p :     3.088603
      px      :     1.012117
      py      :     1.010210
 24 N s       :     3.301219  s :     3.301219
      pz      :     1.288260  p :     3.868670
      px      :     1.345252
      py      :     1.235157
 25 C s       :     2.964181  s :     2.964181
      pz      :     1.153293  p :     3.233438
      px      :     0.991897
      py      :     1.088248
 26 C s       :     2.988800  s :     2.988800
      pz      :     1.130070  p :     3.330407
      px      :     1.123493
      py      :     1.076844
 27 H s       :     0.848612  s :     0.848612
 28 H s       :     0.859161  s :     0.859161
 29 H s       :     0.859083  s :     0.859083
 30 H s       :     0.733499  s :     0.733499
 31 H s       :     0.744151  s :     0.744151
 32 H s       :     0.873410  s :     0.873410
 33 H s       :     0.869663  s :     0.869663
 34 H s       :     0.872022  s :     0.872022
 35 H s       :     0.871371  s :     0.871371
 36 H s       :     0.878578  s :     0.878578
 37 H s       :     0.869432  s :     0.869432
 38 H s       :     0.867433  s :     0.867433
 39 H s       :     0.880765  s :     0.880765
 40 H s       :     0.893439  s :     0.893439
 41 H s       :     0.891874  s :     0.891874


                      *****************************
                      * MAYER POPULATION ANALYSIS *
                      *****************************

  NA   - Mulliken gross atomic population
  ZA   - Total nuclear charge
  QA   - Mulliken gross atomic charge
  VA   - Mayer's total valence
  BVA  - Mayer's bonded valence
  FA   - Mayer's free valence

  ATOM       NA         ZA         QA         VA         BVA        FA
  0 C      6.1611     6.0000    -0.1611     3.9044     3.9044     0.0000
  1 C      5.9506     6.0000     0.0494     3.7200     3.7200    -0.0000
  2 C      5.6574     6.0000     0.3426     3.6501     3.6501     0.0000
  3 C      6.0900     6.0000    -0.0900     3.8192     3.8192     0.0000
  4 C      6.2571     6.0000    -0.2571     4.0003     4.0003    -0.0000
  5 C      6.0897     6.0000    -0.0897     3.8079     3.8079     0.0000
  6 C      5.7727     6.0000     0.2273     3.8812     3.8812    -0.0000
  7 C      5.9123     6.0000     0.0877     3.4203     3.4203    -0.0000
  8 C      5.7128     6.0000     0.2872     3.4591     3.4591    -0.0000
  9 N      7.8624     7.0000    -0.8624     2.8308     2.8308    -0.0000
 10 C      5.5353     6.0000     0.4647     3.8120     3.8120    -0.0000
 11 N      7.4890     7.0000    -0.4890     2.6964     2.6964    -0.0000
 12 N      7.4115     7.0000    -0.4115     2.7230     2.7230     0.0000
 13 C      5.4981     6.0000     0.5019     3.7572     3.7572     0.0000
 14 O      8.4816     8.0000    -0.4816     2.0219     2.0219    -0.0000
 15 O      8.4041     8.0000    -0.4041     2.1137     2.1137    -0.0000
 16 O      8.3974     8.0000    -0.3974     2.0859     2.0859     0.0000
 17 Cl    16.9108    17.0000     0.0892     1.1180     1.1180    -0.0000
 18 C      5.9996     6.0000     0.0004     3.5711     3.5711     0.0000
 19 C      5.8029     6.0000     0.1971     3.7743     3.7743     0.0000
 20 C      6.0734     6.0000    -0.0734     3.8195     3.8195     0.0000
 21 C      6.1276     6.0000    -0.1276     3.8963     3.8963     0.0000
 22 C      6.1063     6.0000    -0.1063     3.8312     3.8312     0.0000
 23 C      5.9849     6.0000     0.0151     3.8432     3.8432     0.0000
 24 N      7.4223     7.0000    -0.4223     2.8275     2.8275     0.0000
 25 C      6.2478     6.0000    -0.2478     3.7208     3.7208     0.0000
 26 C      6.4199     6.0000    -0.4199     3.8061     3.8061     0.0000
 27 H      0.8106     1.0000     0.1894     0.9434     0.9434    -0.0000
 28 H      0.8276     1.0000     0.1724     0.9373     0.9373    -0.0000
 29 H      0.8322     1.0000     0.1678     0.9434     0.9434     0.0000
 30 H      0.6407     1.0000     0.3593     0.8783     0.8783    -0.0000
 31 H      0.6475     1.0000     0.3525     0.8647     0.8647    -0.0000
 32 H      0.8353     1.0000     0.1647     0.9378     0.9378     0.0000
 33 H      0.8531     1.0000     0.1469     0.9425     0.9425     0.0000
 34 H      0.8501     1.0000     0.1499     0.9390     0.9390     0.0000
 35 H      0.8576     1.0000     0.1424     0.9428     0.9428     0.0000
 36 H      0.8507     1.0000     0.1493     0.9341     0.9341     0.0000
 37 H      0.8261     1.0000     0.1739     0.9393     0.9393     0.0000
 38 H      0.8161     1.0000     0.1839     0.9424     0.9424     0.0000
 39 H      0.8492     1.0000     0.1508     0.9360     0.9360    -0.0000
 40 H      0.8648     1.0000     0.1352     0.9372     0.9372    -0.0000
 41 H      0.8595     1.0000     0.1405     0.9357     0.9357     0.0000

  Mayer bond orders larger than 0.1
B(  0-C ,  1-C ) :   1.3611 B(  0-C ,  5-C ) :   1.4568 B(  0-C , 27-H ) :   0.9030 
B(  1-C ,  2-C ) :   1.3283 B(  1-C ,  6-C ) :   0.9292 B(  2-C ,  3-C ) :   1.3498 
B(  2-C ,  9-N ) :   0.8269 B(  3-C ,  4-C ) :   1.4481 B(  3-C , 28-H ) :   0.9129 
B(  4-C ,  5-C ) :   1.3511 B(  4-C , 17-Cl) :   1.0771 B(  5-C , 29-H ) :   0.9233 
B(  6-C ,  7-C ) :   0.9315 B(  6-C , 16-O ) :   1.9068 B(  7-C ,  8-C ) :   1.4083 
B(  7-C , 10-C ) :   0.9483 B(  8-C ,  9-N ) :   0.9814 B(  8-C , 13-C ) :   0.9380 
B(  9-N , 30-H ) :   0.7867 B( 10-C , 11-N ) :   0.8573 B( 10-C , 15-O ) :   1.9001 
B( 11-N , 12-N ) :   0.8557 B( 11-N , 31-H ) :   0.8119 B( 12-N , 13-C ) :   0.9801 
B( 12-N , 18-C ) :   0.7617 B( 13-C , 14-O ) :   1.7378 B( 18-C , 19-C ) :   0.9079 
B( 18-C , 25-C ) :   0.9562 B( 18-C , 32-H ) :   0.9188 B( 19-C , 20-C ) :   1.4027 
B( 19-C , 24-N ) :   1.3356 B( 20-C , 21-C ) :   1.4204 B( 20-C , 23-C ) :   0.1023 
B( 20-C , 33-H ) :   0.9194 B( 21-C , 22-C ) :   1.4410 B( 21-C , 34-H ) :   0.9304 
B( 22-C , 23-C ) :   1.3938 B( 22-C , 35-H ) :   0.9292 B( 23-C , 24-N ) :   1.3801 
B( 23-C , 36-H ) :   0.9316 B( 25-C , 26-C ) :   0.9667 B( 25-C , 37-H ) :   0.9160 
B( 25-C , 38-H ) :   0.9183 B( 26-C , 39-H ) :   0.9518 B( 26-C , 40-H ) :   0.9530 
B( 26-C , 41-H ) :   0.9508 

-------
TIMINGS
-------

Total SCF time: 0 days 0 hours 2 min 25 sec 

Total time                  ....     145.101 sec
Sum of individual times     ....     145.004 sec  ( 99.9%)

Fock matrix formation       ....     136.251 sec  ( 93.9%)
  XC integration            ....      11.764 sec  (  8.6% of F)
    Basis function eval.    ....       7.921 sec  ( 67.3% of XC)
    Density eval.           ....       1.373 sec  ( 11.7% of XC)
    XC-Functional eval.     ....       0.535 sec  (  4.5% of XC)
    XC-Potential eval.      ....       1.772 sec  ( 15.1% of XC)
Diagonalization             ....       0.012 sec  (  0.0%)
Density matrix formation    ....       0.019 sec  (  0.0%)
Population analysis         ....       0.028 sec  (  0.0%)
Initial guess               ....       0.009 sec  (  0.0%)
Orbital Transformation      ....       0.000 sec  (  0.0%)
Orbital Orthonormalization  ....       0.007 sec  (  0.0%)
DIIS solution               ....       0.004 sec  (  0.0%)
SOSCF solution              ....       0.079 sec  (  0.1%)
Grid generation             ....       8.601 sec  (  5.9%)

-------------------------   --------------------
FINAL SINGLE POINT ENERGY     -1636.845906919546
-------------------------   --------------------

                                *** OPTIMIZATION RUN DONE ***

                            ***************************************
                            *     ORCA property calculations      *
                            ***************************************

                                    ---------------------
                                    Active property flags
                                    ---------------------
   (+) Dipole Moment
   (+) Quadrupole Moment


------------------------------------------------------------------------------
                       ORCA ELECTRIC PROPERTIES CALCULATION
------------------------------------------------------------------------------

Dipole Moment Calculation                       ... on
Quadrupole Moment Calculation                   ... on
Polarizability Calculation                      ... off
GBWName                                         ... orca_input.gbw
Electron density file                           ... orca_input.scfp.tmp
The origin for moment calculation is the CENTER OF MASS  = ( 0.805684, -1.809483 -1.252428)

-------------
DIPOLE MOMENT
-------------
                                X             Y             Z
Electronic contribution:    -10.49831      -9.93199     -29.99836
Nuclear contribution   :     11.34808      12.16048      30.45090
                        -----------------------------------------
Total Dipole Moment    :      0.84976       2.22849       0.45253
                        -----------------------------------------
Magnitude (a.u.)       :      2.42756
Magnitude (Debye)      :      6.17036


------------------------
QUADRUPOLE MOMENT (A.U.)
------------------------

                XX           YY           ZZ           XY           XZ           YZ
  NUC      1196.71796   3345.32987   8488.72166    723.22250    880.93218   3132.31244
  EL      -1322.89041  -3469.43980  -8605.04711   -737.60013   -877.89795  -3121.41710
  TOT      -126.17245   -124.10993   -116.32545    -14.37764      3.03422     10.89534 (a.u.)
           -169.70626   -166.93211   -156.46171    -19.33841      4.08113     14.65460 (Buckingham)

diagonalized tensor: 
  -143.16593    -117.37824    -106.06366   (a.u.)
  -192.56308    -157.87775    -142.65925   (Buckingham)
  -62.88997     14.47311     48.41686   (traceless form in Buckingham)

   -0.64071      0.65661     -0.39794  
   -0.68344     -0.25156      0.68529  
    0.34986      0.71104      0.60993  

Isotropic quadrupole : -122.20261


Timings for individual modules:

Sum of individual times         ...     6231.397 sec (= 103.857 min)
GTO integral calculation        ...        9.291 sec (=   0.155 min)   0.1 %
SCF iterations                  ...     4711.352 sec (=  78.523 min)  75.6 %
SCF Gradient evaluation         ...     1506.772 sec (=  25.113 min)  24.2 %
Geometry relaxation             ...        3.982 sec (=   0.066 min)   0.1 %
                             ****ORCA TERMINATED NORMALLY****
TOTAL RUN TIME: 0 days 1 hours 43 minutes 54 seconds 886 msec
