 *******************************************************************************
 ** Site#: 28546        For non-commercial use only    Version 18.184L 64BITS **
 *******************************************************************************
 ** Cite this program as: MOPAC2016, Version: 18.184L, James J. P. Stewart,   **
 ** Stewart Computational Chemistry, web: HTTP://OpenMOPAC.net. Days left: 305**
 *******************************************************************************
 **                                                                           **
 **                                MOPAC2016                                  **
 **                                                                           **
 *******************************************************************************

                              PM6 CALCULATION RESULTS

 *******************************************************************************
 *  CALCULATION DONE:                                Sat Sep  1 16:05:37 2018  *
 *  PM6        - The PM6 Hamiltonian to be used
 *  SINGLET    - SPIN STATE DEFINED AS A SINGLET
 *
 *
 *
 *                 CHARGE ON SYSTEM = 0
 *
 *
 *
 *  XYZ        - CARTESIAN COORDINATE SYSTEM TO BE USED
 *  T=         - A TIME OF 172800.0 SECONDS REQUESTED
 *  DUMP=N     - RESTART FILE WRITTEN EVERY  7200.000 SECONDS
 *  AUX        - OUTPUT AUXILIARY INFORMATION
 *  BONDS      - FINAL BOND-ORDER MATRIX TO BE PRINTED
 *******************************************************************************
PM6 XYZ CHARGE=0 Singlet BONDS AUX

 File generated by El_Dryosa
   ATOM   CHEMICAL          X               Y               Z
  NUMBER   SYMBOL      (ANGSTROMS)     (ANGSTROMS)     (ANGSTROMS)
 
     1       C         -0.19350000  *  -2.05390000  *   0.88790000  *
     2       C          0.05430000  *  -2.26680000  *  -0.61130000  *
     3       C          0.78790000  *  -1.01180000  *  -1.12140000  *
     4       C          0.94620000  *  -0.06920000  *   0.10100000  *
     5       C          0.84800000  *  -1.02020000  *   1.31690000  *
     6       N          2.17080000  *   0.71670000  *   0.07890000  *
     7       C         -0.04520000  *   1.09570000  *   0.09920000  *
     8       O         -0.08450000  *   1.75130000  *  -0.96340000  *
     9       O         -0.44750000  *   1.49630000  *   1.20670000  *
    10       H         -0.13430000  *  -2.97940000  *   1.46190000  *
    11       H         -1.19250000  *  -1.63770000  *   1.03830000  *
    12       H         -0.88300000  *  -2.43260000  *  -1.14480000  *
    13       H          0.67510000  *  -3.14940000  *  -0.76990000  *
    14       H          0.23100000  *  -0.56100000  *  -1.94540000  *
    15       H          1.75750000  *  -1.29670000  *  -1.53000000  *
    16       H          0.56890000  *  -0.53650000  *   2.25450000  *
    17       H          1.80170000  *  -1.51960000  *   1.49090000  *
    18       H          2.99630000  *   0.15440000  *  -0.02250000  *
    19       H          2.01930000  *   1.35330000  *  -0.69410000  *
    20       H          2.15670000  *   1.26510000  *   0.92560000  *
 

                                Isotopes Used

              Atom:    1  C  Default mass 12.0110,  mass used:  1.0000 amu
              Atom:    2  C  Default mass 12.0110,  mass used:  2.0000 amu
              Atom:    3  C  Default mass 12.0110,  mass used:  3.0000 amu
              Atom:    4  C  Default mass 12.0110,  mass used:  4.0000 amu
              Atom:    5  C  Default mass 12.0110,  mass used:  5.0000 amu
              Atom:    6  N  Default mass 14.0067,  mass used:  6.0000 amu
              Atom:    7  C  Default mass 12.0110,  mass used:  7.0000 amu
              Atom:    8  O  Default mass 15.9994,  mass used:  8.0000 amu
              Atom:    9  O  Default mass 15.9994,  mass used:  9.0000 amu
              Atom:   10  H  Default mass  1.0079,  mass used: 10.0000 amu
              Atom:   11  H  Default mass  1.0079,  mass used: 11.0000 amu
              Atom:   12  H  Default mass  1.0079,  mass used: 12.0000 amu
              Atom:   13  H  Default mass  1.0079,  mass used: 13.0000 amu
              Atom:   14  H  Default mass  1.0079,  mass used: 14.0000 amu
              Atom:   15  H  Default mass  1.0079,  mass used: 15.0000 amu
              Atom:   16  H  Default mass  1.0079,  mass used: 16.0000 amu
              Atom:   17  H  Default mass  1.0079,  mass used: 17.0000 amu
              Atom:   18  H  Default mass  1.0079,  mass used: 18.0000 amu
              Atom:   19  H  Default mass  1.0079,  mass used: 19.0000 amu
              Atom:   20  H  Default mass  1.0079,  mass used: 20.0000 amu


          CARTESIAN COORDINATES 

    NO.       ATOM           X           Y           Z

     1         C         -0.1935     -2.0539      0.8879
     2         C          0.0543     -2.2668     -0.6113
     3         C          0.7879     -1.0118     -1.1214
     4         C          0.9462     -0.0692      0.1010
     5         C          0.8480     -1.0202      1.3169
     6         N          2.1708      0.7167      0.0789
     7         C         -0.0452      1.0957      0.0992
     8         O         -0.0845      1.7513     -0.9634
     9         O         -0.4475      1.4963      1.2067
    10         H         -0.1343     -2.9794      1.4619
    11         H         -1.1925     -1.6377      1.0383
    12         H         -0.8830     -2.4326     -1.1448
    13         H          0.6751     -3.1494     -0.7699
    14         H          0.2310     -0.5610     -1.9454
    15         H          1.7575     -1.2967     -1.5300
    16         H          0.5689     -0.5365      2.2545
    17         H          1.8017     -1.5196      1.4909
    18         H          2.9963      0.1544     -0.0225
    19         H          2.0193      1.3533     -0.6941
    20         H          2.1567      1.2651      0.9256

 General Reference for PM6:
 "Optimization of Parameters for Semiempirical Methods V: Modification of NDDO Approximations
 and Application to 70 Elements", J. J. P. Stewart, J. Mol. Mod., 13, 1173-1213 (2007)
 URL: http://www.springerlink.com/content/ar33482301010477/fulltext.pdf

           Empirical Formula: C6 H11 N O2  =    20 atoms



      MOLECULAR POINT GROUP   :   C1  


 SINGLET STATE CALCULATION


      RHF CALCULATION, NO. OF DOUBLY OCCUPIED LEVELS = 26


          Geometry optimization using EF

          DIAGONAL MATRIX USED AS START HESSIAN

 CYCLE:     1 TIME:   0.004 TIME LEFT:  2.00D  GRAD.:   150.950 HEAT: -69.17746
 CYCLE:     2 TIME:   0.004 TIME LEFT:  2.00D  GRAD.:   211.599 HEAT: -70.91839
 CYCLE:     3 TIME:   0.008 TIME LEFT:  2.00D  GRAD.:   170.173 HEAT: -74.92757
 CYCLE:     4 TIME:   0.004 TIME LEFT:  2.00D  GRAD.:   108.052 HEAT: -77.52094
 CYCLE:     5 TIME:   0.004 TIME LEFT:  2.00D  GRAD.:    43.264 HEAT: -80.17452
 CYCLE:     6 TIME:   0.008 TIME LEFT:  2.00D  GRAD.:    23.526 HEAT: -80.75964
 CYCLE:     7 TIME:   0.004 TIME LEFT:  2.00D  GRAD.:    15.334 HEAT: -81.22947
 CYCLE:     8 TIME:   0.000 TIME LEFT:  2.00D  GRAD.:    31.987 HEAT: -81.58701
 CYCLE:     9 TIME:   0.004 TIME LEFT:  2.00D  GRAD.:    24.223 HEAT: -82.07747
 CYCLE:    10 TIME:   0.004 TIME LEFT:  2.00D  GRAD.:    27.799 HEAT: -82.25937
 CYCLE:    11 TIME:   0.004 TIME LEFT:  2.00D  GRAD.:    19.201 HEAT: -82.57992
 CYCLE:    12 TIME:   0.008 TIME LEFT:  2.00D  GRAD.:    24.478 HEAT: -82.66884
 CYCLE:    13 TIME:   0.004 TIME LEFT:  2.00D  GRAD.:    13.042 HEAT: -82.90273
 CYCLE:    14 TIME:   0.000 TIME LEFT:  2.00D  GRAD.:    29.094 HEAT: -82.90557
 CYCLE:    15 TIME:   0.004 TIME LEFT:  2.00D  GRAD.:    17.572 HEAT: -83.17863
 CYCLE:    16 TIME:   0.004 TIME LEFT:  2.00D  GRAD.:    25.044 HEAT: -83.28067
 CYCLE:    17 TIME:   0.000 TIME LEFT:  2.00D  GRAD.:    21.435 HEAT: -83.48927
 CYCLE:    18 TIME:   0.008 TIME LEFT:  2.00D  GRAD.:    14.543 HEAT: -83.64693
 CYCLE:    19 TIME:   0.004 TIME LEFT:  2.00D  GRAD.:    12.453 HEAT: -83.70694
 CYCLE:    20 TIME:   0.004 TIME LEFT:  2.00D  GRAD.:    11.456 HEAT: -83.79137
 CYCLE:    21 TIME:   0.004 TIME LEFT:  2.00D  GRAD.:    14.487 HEAT: -83.85490
 CYCLE:    22 TIME:   0.004 TIME LEFT:  2.00D  GRAD.:     9.484 HEAT: -84.01006
 CYCLE:    23 TIME:   0.004 TIME LEFT:  2.00D  GRAD.:    23.494 HEAT: -84.07071
 CYCLE:    24 TIME:   0.000 TIME LEFT:  2.00D  GRAD.:    17.289 HEAT: -84.41239
 CYCLE:    25 TIME:   0.008 TIME LEFT:  2.00D  GRAD.:    29.812 HEAT: -84.42218
 CYCLE:    26 TIME:   0.000 TIME LEFT:  2.00D  GRAD.:    17.858 HEAT: -84.89067
 CYCLE:    27 TIME:   0.004 TIME LEFT:  2.00D  GRAD.:    37.356 HEAT: -85.17923
 CYCLE:    28 TIME:   0.004 TIME LEFT:  2.00D  GRAD.:    42.651 HEAT: -85.43675
 CYCLE:    29 TIME:   0.000 TIME LEFT:  2.00D  GRAD.:    21.223 HEAT: -86.36359
 CYCLE:    30 TIME:   0.012 TIME LEFT:  2.00D  GRAD.:    21.298 HEAT: -86.47611
 CYCLE:    31 TIME:   0.004 TIME LEFT:  2.00D  GRAD.:     8.799 HEAT: -86.63988
 CYCLE:    32 TIME:   0.000 TIME LEFT:  2.00D  GRAD.:    12.716 HEAT: -86.74284
 CYCLE:    33 TIME:   0.004 TIME LEFT:  2.00D  GRAD.:    11.486 HEAT: -86.92264
 CYCLE:    34 TIME:   0.004 TIME LEFT:  2.00D  GRAD.:    14.133 HEAT: -87.11831
 CYCLE:    35 TIME:   0.004 TIME LEFT:  2.00D  GRAD.:    15.000 HEAT: -87.43219
 CYCLE:    36 TIME:   0.000 TIME LEFT:  2.00D  GRAD.:    31.781 HEAT: -87.60689
 CYCLE:    37 TIME:   0.008 TIME LEFT:  2.00D  GRAD.:    37.120 HEAT: -87.79385
 CYCLE:    38 TIME:   0.008 TIME LEFT:  2.00D  GRAD.:    17.729 HEAT: -88.06895
 CYCLE:    39 TIME:   0.000 TIME LEFT:  2.00D  GRAD.:    21.350 HEAT: -88.07018
 CYCLE:    40 TIME:   0.004 TIME LEFT:  2.00D  GRAD.:     9.392 HEAT: -88.20843
 CYCLE:    41 TIME:   0.004 TIME LEFT:  2.00D  GRAD.:     8.190 HEAT: -88.30707
 CYCLE:    42 TIME:   0.000 TIME LEFT:  2.00D  GRAD.:    12.335 HEAT: -88.39333
 CYCLE:    43 TIME:   0.004 TIME LEFT:  2.00D  GRAD.:     8.504 HEAT: -88.55708
 CYCLE:    44 TIME:   0.004 TIME LEFT:  2.00D  GRAD.:    13.441 HEAT: -88.72571
 CYCLE:    45 TIME:   0.004 TIME LEFT:  2.00D  GRAD.:    11.689 HEAT: -88.95037
 CYCLE:    46 TIME:   0.004 TIME LEFT:  2.00D  GRAD.:    16.507 HEAT: -89.06873
 CYCLE:    47 TIME:   0.012 TIME LEFT:  2.00D  GRAD.:    16.947 HEAT: -89.12344
 CYCLE:    48 TIME:   0.004 TIME LEFT:  2.00D  GRAD.:     4.349 HEAT: -89.20068
 CYCLE:    49 TIME:   0.004 TIME LEFT:  2.00D  GRAD.:     3.592 HEAT: -89.24764
 CYCLE:    50 TIME:   0.004 TIME LEFT:  2.00D  GRAD.:     4.681 HEAT: -89.32777
 CYCLE:    51 TIME:   0.004 TIME LEFT:  2.00D  GRAD.:     5.138 HEAT: -89.49216
 CYCLE:    52 TIME:   0.000 TIME LEFT:  2.00D  GRAD.:    11.691 HEAT: -89.75351
 CYCLE:    53 TIME:   0.004 TIME LEFT:  2.00D  GRAD.:    24.523 HEAT: -90.06228
 CYCLE:    54 TIME:   0.004 TIME LEFT:  2.00D  GRAD.:    41.757 HEAT: -90.85940
 CYCLE:    55 TIME:   0.008 TIME LEFT:  2.00D  GRAD.:    85.908 HEAT: -91.10160
 CYCLE:    56 TIME:   0.000 TIME LEFT:  2.00D  GRAD.:    84.819 HEAT: -92.63509
 CYCLE:    57 TIME:   0.008 TIME LEFT:  2.00D  GRAD.:    37.249 HEAT: -94.03443
 CYCLE:    58 TIME:   0.004 TIME LEFT:  2.00D  GRAD.:    51.063 HEAT: -95.70927
 CYCLE:    59 TIME:   0.008 TIME LEFT:  2.00D  GRAD.:    51.606 HEAT: -97.17218
 CYCLE:    60 TIME:   0.000 TIME LEFT:  2.00D  GRAD.:    35.448 HEAT: -98.91747
 CYCLE:    61 TIME:   0.004 TIME LEFT:  2.00D  GRAD.:    29.283 HEAT: -100.1582
 CYCLE:    62 TIME:   0.004 TIME LEFT:  2.00D  GRAD.:    34.699 HEAT: -100.4264
 CYCLE:    63 TIME:   0.008 TIME LEFT:  2.00D  GRAD.:    22.860 HEAT: -100.7623
 CYCLE:    64 TIME:   0.004 TIME LEFT:  2.00D  GRAD.:    23.933 HEAT: -100.8180
 CYCLE:    65 TIME:   0.004 TIME LEFT:  2.00D  GRAD.:    18.772 HEAT: -101.0712
 CYCLE:    66 TIME:   0.004 TIME LEFT:  2.00D  GRAD.:    14.684 HEAT: -101.1236
 CYCLE:    67 TIME:   0.000 TIME LEFT:  2.00D  GRAD.:     7.976 HEAT: -101.2816
 CYCLE:    68 TIME:   0.004 TIME LEFT:  2.00D  GRAD.:    10.140 HEAT: -101.3419
 CYCLE:    69 TIME:   0.004 TIME LEFT:  2.00D  GRAD.:     5.541 HEAT: -101.3928
 CYCLE:    70 TIME:   0.000 TIME LEFT:  2.00D  GRAD.:     9.887 HEAT: -101.4140
 CYCLE:    71 TIME:   0.004 TIME LEFT:  2.00D  GRAD.:     3.726 HEAT: -101.4406
 CYCLE:    72 TIME:   0.004 TIME LEFT:  2.00D  GRAD.:     2.456 HEAT: -101.4536
 CYCLE:    73 TIME:   0.000 TIME LEFT:  2.00D  GRAD.:     4.223 HEAT: -101.4879
 CYCLE:    74 TIME:   0.004 TIME LEFT:  2.00D  GRAD.:     6.941 HEAT: -101.5379
 CYCLE:    75 TIME:   0.004 TIME LEFT:  2.00D  GRAD.:    11.810 HEAT: -101.6073
 CYCLE:    76 TIME:   0.000 TIME LEFT:  2.00D  GRAD.:     7.342 HEAT: -101.6915
 CYCLE:    77 TIME:   0.004 TIME LEFT:  2.00D  GRAD.:     7.897 HEAT: -101.8179
 CYCLE:    78 TIME:   0.004 TIME LEFT:  2.00D  GRAD.:     3.539 HEAT: -101.8703
 CYCLE:    79 TIME:   0.004 TIME LEFT:  2.00D  GRAD.:     6.499 HEAT: -101.8848
 CYCLE:    80 TIME:   0.000 TIME LEFT:  2.00D  GRAD.:     3.119 HEAT: -101.9073
 CYCLE:    81 TIME:   0.004 TIME LEFT:  2.00D  GRAD.:     2.654 HEAT: -101.9301
 CYCLE:    82 TIME:   0.004 TIME LEFT:  2.00D  GRAD.:     2.935 HEAT: -101.9554
 CYCLE:    83 TIME:   0.000 TIME LEFT:  2.00D  GRAD.:     3.630 HEAT: -101.9854
 CYCLE:    84 TIME:   0.004 TIME LEFT:  2.00D  GRAD.:     5.067 HEAT: -102.0217
 CYCLE:    85 TIME:   0.004 TIME LEFT:  2.00D  GRAD.:     6.066 HEAT: -102.0616
 CYCLE:    86 TIME:   0.004 TIME LEFT:  2.00D  GRAD.:     3.752 HEAT: -102.1140
 CYCLE:    87 TIME:   0.000 TIME LEFT:  2.00D  GRAD.:     9.896 HEAT: -102.1462
 CYCLE:    88 TIME:   0.004 TIME LEFT:  2.00D  GRAD.:     5.484 HEAT: -102.2024
 CYCLE:    89 TIME:   0.004 TIME LEFT:  2.00D  GRAD.:     4.740 HEAT: -102.2420
 CYCLE:    90 TIME:   0.000 TIME LEFT:  2.00D  GRAD.:     6.544 HEAT: -102.2809
 CYCLE:    91 TIME:   0.004 TIME LEFT:  2.00D  GRAD.:     4.979 HEAT: -102.3018
 CYCLE:    92 TIME:   0.004 TIME LEFT:  2.00D  GRAD.:     4.841 HEAT: -102.3232
 CYCLE:    93 TIME:   0.000 TIME LEFT:  2.00D  GRAD.:     5.397 HEAT: -102.3458
 CYCLE:    94 TIME:   0.004 TIME LEFT:  2.00D  GRAD.:     4.604 HEAT: -102.3697
 CYCLE:    95 TIME:   0.004 TIME LEFT:  2.00D  GRAD.:     5.450 HEAT: -102.4126
 CYCLE:    96 TIME:   0.004 TIME LEFT:  2.00D  GRAD.:     6.469 HEAT: -102.4274
 CYCLE:    97 TIME:   0.004 TIME LEFT:  2.00D  GRAD.:    10.502 HEAT: -102.4409
 CYCLE:    98 TIME:   0.000 TIME LEFT:  2.00D  GRAD.:     2.314 HEAT: -102.4780
 CYCLE:    99 TIME:   0.004 TIME LEFT:  2.00D  GRAD.:     2.520 HEAT: -102.4885
 CYCLE:   100 TIME:   0.004 TIME LEFT:  2.00D  GRAD.:     4.254 HEAT: -102.5005
 CYCLE:   101 TIME:   0.000 TIME LEFT:  2.00D  GRAD.:     3.290 HEAT: -102.5079
 CYCLE:   102 TIME:   0.004 TIME LEFT:  2.00D  GRAD.:     2.775 HEAT: -102.5166
 CYCLE:   103 TIME:   0.004 TIME LEFT:  2.00D  GRAD.:     1.923 HEAT: -102.5217
 CYCLE:   104 TIME:   0.004 TIME LEFT:  2.00D  GRAD.:     1.743 HEAT: -102.5281
 CYCLE:   105 TIME:   0.000 TIME LEFT:  2.00D  GRAD.:     1.817 HEAT: -102.5376
 CYCLE:   106 TIME:   0.004 TIME LEFT:  2.00D  GRAD.:     2.122 HEAT: -102.5410
 CYCLE:   107 TIME:   0.004 TIME LEFT:  2.00D  GRAD.:     2.222 HEAT: -102.5445
 CYCLE:   108 TIME:   0.004 TIME LEFT:  2.00D  GRAD.:     3.583 HEAT: -102.5492
 CYCLE:   109 TIME:   0.004 TIME LEFT:  2.00D  GRAD.:     3.097 HEAT: -102.5562
 CYCLE:   110 TIME:   0.000 TIME LEFT:  2.00D  GRAD.:     5.487 HEAT: -102.5632
 CYCLE:   111 TIME:   0.004 TIME LEFT:  2.00D  GRAD.:     4.499 HEAT: -102.5659
 CYCLE:   112 TIME:   0.004 TIME LEFT:  2.00D  GRAD.:     1.871 HEAT: -102.5776
 CYCLE:   113 TIME:   0.004 TIME LEFT:  2.00D  GRAD.:     4.187 HEAT: -102.5830
 CYCLE:   114 TIME:   0.004 TIME LEFT:  2.00D  GRAD.:     2.898 HEAT: -102.5911
 CYCLE:   115 TIME:   0.000 TIME LEFT:  2.00D  GRAD.:     5.198 HEAT: -102.5862
 CYCLE:   116 TIME:   0.004 TIME LEFT:  2.00D  GRAD.:     2.591 HEAT: -102.6059
 CYCLE:   117 TIME:   0.004 TIME LEFT:  2.00D  GRAD.:     2.293 HEAT: -102.6133
 CYCLE:   118 TIME:   0.004 TIME LEFT:  2.00D  GRAD.:     3.325 HEAT: -102.6373
 CYCLE:   119 TIME:   0.004 TIME LEFT:  2.00D  GRAD.:     4.286 HEAT: -102.6576
 CYCLE:   120 TIME:   0.000 TIME LEFT:  2.00D  GRAD.:     2.158 HEAT: -102.6728
 CYCLE:   121 TIME:   0.004 TIME LEFT:  2.00D  GRAD.:     1.440 HEAT: -102.6788
 CYCLE:   122 TIME:   0.004 TIME LEFT:  2.00D  GRAD.:     1.775 HEAT: -102.6823
 CYCLE:   123 TIME:   0.004 TIME LEFT:  2.00D  GRAD.:     1.290 HEAT: -102.6855
 CYCLE:   124 TIME:   0.000 TIME LEFT:  2.00D  GRAD.:     1.023 HEAT: -102.6885
 CYCLE:   125 TIME:   0.004 TIME LEFT:  2.00D  GRAD.:     1.494 HEAT: -102.6914
 CYCLE:   126 TIME:   0.004 TIME LEFT:  2.00D  GRAD.:     1.300 HEAT: -102.6938
 CYCLE:   127 TIME:   0.000 TIME LEFT:  2.00D  GRAD.:     2.405 HEAT: -102.6958
 CYCLE:   128 TIME:   0.004 TIME LEFT:  2.00D  GRAD.:     1.430 HEAT: -102.6987
 CYCLE:   129 TIME:   0.004 TIME LEFT:  2.00D  GRAD.:     0.981 HEAT: -102.7013

     GRADIENT =  0.98122  IS LESS THAN CUTOFF =  1.00000



 -------------------------------------------------------------------------------
 PM6 XYZ CHARGE=0 Singlet BONDS AUX

 File generated by El_Dryosa


     GEOMETRY OPTIMISED USING EIGENVECTOR FOLLOWING (EF).     
     SCF FIELD WAS ACHIEVED                                   


                              PM6 CALCULATION
                                                       MOPAC2016 (Version: 18.184L)
                                                       Sat Sep  1 16:05:37 2018
                                                       No. of days remaining = 305




          FINAL HEAT OF FORMATION =       -102.70131 KCAL/MOL =    -429.70226 KJ/MOL


          TOTAL ENERGY            =      -1647.96698 EV
          ELECTRONIC ENERGY       =      -8092.55754 EV  POINT GROUP:     C1  
          CORE-CORE REPULSION     =       6444.59056 EV
          COSMO AREA              =        160.80 SQUARE ANGSTROMS
          COSMO VOLUME            =        163.12 CUBIC ANGSTROMS

          GRADIENT NORM           =          0.98122 = 0.21941 PER ATOM
          IONIZATION POTENTIAL    =         10.239021 EV
          HOMO LUMO ENERGIES (EV) =        -10.239  0.705
          NO. OF FILLED LEVELS    =         26
          MOLECULAR WEIGHT        =        210.0000

          MOLECULAR DIMENSIONS (Angstroms)

            Atom       Atom       Distance
            H    19    H    12     5.83366
            H    10    O     9     4.68767
            H    16    H    18     4.01174


          SCF CALCULATIONS        =        154
 
          WALL-CLOCK TIME         =          0.457 SECONDS
          COMPUTATION TIME        =          1.803 SECONDS




   ATOM   CHEMICAL          X               Y               Z
  NUMBER   SYMBOL      (ANGSTROMS)     (ANGSTROMS)     (ANGSTROMS)
 
     1       C          0.30212980  *  -2.16613130  *   1.06290921  *
     2       C          0.27547662  *  -2.38792518  *  -0.46260008  *
     3       C          0.43878840  *  -1.01316398  *  -1.13071734  *
     4       C          0.92656691  *  -0.04661048  *  -0.02517511  *
     5       C          0.40039015  *  -0.65104275  *   1.30068324  *
     6       N          2.40420068  *   0.13303885  *   0.02162194  *
     7       C          0.32204723  *   1.36350585  *  -0.22021423  *
     8       O          1.02569205  *   2.41545219  *   0.29836977  *
     9       O         -0.72911474  *   1.60882453  *  -0.75783984  *
    10       H          1.15765374  *  -2.69314412  *   1.51934327  *
    11       H         -0.60069245  *  -2.58096647  *   1.54212949  *
    12       H         -0.67134953  *  -2.86174734  *  -0.77697048  *
    13       H          1.07909921  *  -3.07751821  *  -0.77240259  *
    14       H         -0.53450809  *  -0.66106691  *  -1.53591945  *
    15       H          1.12283450  *  -1.04834527  *  -1.99196871  *
    16       H         -0.59718745  *  -0.23358503  *   1.54311878  *
    17       H          1.04789021  *  -0.40229294  *   2.15860108  *
    18       H          2.80603380  *   0.12872397  *  -0.91445901  *
    19       H          1.91975158  *   2.15898247  *   0.67561637  *
    20       H          2.84887910  *  -0.62166609  *   0.53991978  *

                             CARTESIAN COORDINATES

   1    C        0.302129803    -2.166131303     1.062909214
   2    C        0.275476621    -2.387925176    -0.462600079
   3    C        0.438788396    -1.013163979    -1.130717335
   4    C        0.926566914    -0.046610478    -0.025175105
   5    C        0.400390149    -0.651042748     1.300683241
   6    N        2.404200680     0.133038848     0.021621936
   7    C        0.322047226     1.363505850    -0.220214233
   8    O        1.025692047     2.415452187     0.298369768
   9    O       -0.729114743     1.608824531    -0.757839842
  10    H        1.157653737    -2.693144118     1.519343273
  11    H       -0.600692447    -2.580966465     1.542129485
  12    H       -0.671349527    -2.861747336    -0.776970485
  13    H        1.079099213    -3.077518213    -0.772402595
  14    H       -0.534508089    -0.661066913    -1.535919449
  15    H        1.122834498    -1.048345265    -1.991968712
  16    H       -0.597187446    -0.233585027     1.543118777
  17    H        1.047890209    -0.402292942     2.158601085
  18    H        2.806033800     0.128723974    -0.914459014
  19    H        1.919751580     2.158982473     0.675616368
  20    H        2.848879099    -0.621666085     0.539919780


           Empirical Formula: C6 H11 N O2  =    20 atoms



      MOLECULAR POINT GROUP   :   C1  


                  EIGENVALUES  
 -32.41781 -31.87857 -30.47129 -29.09611 -25.61680 -25.42520 -22.25201 -20.43327
 -20.26654 -18.54226 -17.25934 -16.91302 -16.18845 -15.63961 -15.05206 -14.69822
 -14.48637 -13.22837 -12.98582 -12.73859 -12.68935 -12.51660 -11.85645 -11.67740
 -10.99148 -10.23902   0.70464   1.78779   2.39514   2.87668   2.90325   3.30368
   3.59959   4.02369   4.36448   4.46002   4.79419   5.09030   5.19277   5.47297
   5.58127   5.74368   5.79013   5.92403   6.01106   6.03680   6.16414


              NET ATOMIC CHARGES AND DIPOLE CONTRIBUTIONS

  ATOM NO.   TYPE          CHARGE      No. of ELECS.   s-Pop       p-Pop       
    1          C          -0.247992        4.2480     1.08865     3.15934
    2          C          -0.241991        4.2420     1.08816     3.15383
    3          C          -0.325767        4.3258     1.10254     3.22322
    4          C           0.086463        3.9135     1.11411     2.79942
    5          C          -0.296517        4.2965     1.09889     3.19763
    6          N          -0.568117        5.5681     1.60491     3.96321
    7          C           0.593322        3.4067     1.11224     2.29444
    8          O          -0.505968        6.5060     1.81327     4.69270
    9          O          -0.467421        6.4674     1.85081     4.61661
   10          H           0.129436        0.8706     0.87056
   11          H           0.138074        0.8619     0.86193
   12          H           0.137906        0.8621     0.86209
   13          H           0.128458        0.8715     0.87154
   14          H           0.176011        0.8240     0.82399
   15          H           0.141660        0.8583     0.85834
   16          H           0.159702        0.8403     0.84030
   17          H           0.150272        0.8497     0.84973
   18          H           0.224918        0.7751     0.77508
   19          H           0.356498        0.6435     0.64350
   20          H           0.231051        0.7689     0.76895
 DIPOLE           X         Y         Z       TOTAL
 POINT-CHG.     2.583    -3.887     1.300     4.844
 HYBRID         0.400    -0.756    -0.394     0.942
 SUM            2.982    -4.642     0.906     5.592


          ATOMIC ORBITAL ELECTRON POPULATIONS

     Atom    s        px        py        pz   
    1  C   1.08865   1.15067   0.99553   1.01314
    2  C   1.08816   1.14945   1.01725   0.98713
    3  C   1.10254   1.16906   1.00766   1.04650
    4  C   1.11411   0.86049   0.95485   0.98408
    5  C   1.09889   1.15165   1.01618   1.02980
    6  N   1.60491   1.11189   1.56056   1.29076
    7  C   1.11224   0.77355   0.82725   0.69363
    8  O   1.81327   1.44872   1.51043   1.73355
    9  O   1.85081   1.33518   1.81165   1.46978
   10  H   0.87056
   11  H   0.86193
   12  H   0.86209
   13  H   0.87154
   14  H   0.82399
   15  H   0.85834
   16  H   0.84030
   17  H   0.84973
   18  H   0.77508
   19  H   0.64350
   20  H   0.76895

          BONDING CONTRIBUTION OF EACH M.O.

  1.5507  1.3858  1.2133  1.7592  1.9424  1.7087  1.4712  1.8966  1.8569  1.7977
  1.8747  1.8543  1.7154  1.4323  1.1304  1.6120  1.8288  1.5026  1.6923  2.0044
  1.9524  1.8526  0.6137  1.9198  0.8342  0.8256 -1.9608 -2.1954 -1.9747 -1.9717
 -1.9571 -1.9824 -1.9576 -2.0133 -1.9501 -1.9333 -1.9447 -1.9527 -1.9300 -1.9443
 -1.8613 -1.9972 -1.9458 -1.9492 -1.9598 -1.9451 -1.9013





            (VALENCIES)   BOND ORDERS

     1  C     (3.962)     5  C 1.000     2  C 0.999    10  H 0.975    11  H 0.972
 
     2  C     (3.962)     3  C 1.000     1  C 0.999    13  H 0.975    12  H 0.972
 
     3  C     (3.948)     2  C 1.000     4  C 0.976    15  H 0.967    14  H 0.956     6  N 0.018
 
     4  C     (3.958)     6  N 0.986     5  C 0.979     3  C 0.976     7  C 0.886     9  O 0.059     8  O 0.047
 
     5  C     (3.951)     1  C 1.000     4  C 0.979    17  H 0.965    16  H 0.963
 
     6  N     (2.917)     4  C 0.986    18  H 0.933    20  H 0.930     3  C 0.018    19  H 0.011
 
     7  C     (3.772)     9  O 1.811     8  O 1.030     4  C 0.886
 
     8  O     (2.093)     7  C 1.030    19  H 0.841     9  O 0.157     4  C 0.047
 
     9  O     (2.066)     7  C 1.811     8  O 0.157     4  C 0.059    19  H 0.018
 
    10  H     (0.983)     1  C 0.975
 
    11  H     (0.981)     1  C 0.972
 
    12  H     (0.981)     2  C 0.972
 
    13  H     (0.983)     2  C 0.975
 
    14  H     (0.969)     3  C 0.956
 
    15  H     (0.980)     3  C 0.967
 
    16  H     (0.974)     5  C 0.963
 
    17  H     (0.977)     5  C 0.965
 
    18  H     (0.949)     6  N 0.933
 
    19  H     (0.873)     8  O 0.841     9  O 0.018     6  N 0.011
 
    20  H     (0.947)     6  N 0.930
 

 **********************
 *                    *
 * JOB ENDED NORMALLY *
 *                    *
 **********************



 TOTAL JOB TIME:             0.46 SECONDS

 == MOPAC DONE ==
