
                                 *****************
                                 * O   R   C   A *
                                 *****************

           --- An Ab Initio, DFT and Semiempirical electronic structure package ---

                  #######################################################
                  #                        -***-                        #
                  #  Department of molecular theory and spectroscopy    #
                  #              Directorship: Frank Neese              #
                  # Max Planck Institute for Chemical Energy Conversion #
                  #                  D-45470 Muelheim/Ruhr              #
                  #                       Germany                       #
                  #                                                     #
                  #                  All rights reserved                #
                  #                        -***-                        #
                  #######################################################


                         Program Version 4.0.1.2 - RELEASE -


 With contributions from (in alphabetic order):
   Daniel Aravena         : Magnetic Properties
   Michael Atanasov       : Ab Initio Ligand Field Theory
   Ute Becker             : Parallelization
   Martin Brehm           : Molecular dynamics
   Dmytro Bykov           : SCF Hessian
   Vijay G. Chilkuri      : MRCI spin determinant printing
   Dipayan Datta          : RHF DLPNO-CCSD density
   Achintya Kumar Dutta   : EOM-CC, STEOM-CC
   Dmitry Ganyushin       : Spin-Orbit,Spin-Spin,Magnetic field MRCI
   Yang Guo               : DLPNO-NEVPT2, CIM, IAO-localization
   Andreas Hansen         : Spin unrestricted coupled pair/coupled cluster methods
   Lee Huntington         : MR-EOM, pCC
   Robert Izsak           : Overlap fitted RIJCOSX, COSX-SCS-MP3, EOM
   Christian Kollmar      : KDIIS, OOCD, Brueckner-CCSD(T), CCSD density
   Simone Kossmann        : Meta GGA functionals, TD-DFT gradient, OOMP2, MP2 Hessian
   Martin Krupicka        : AUTO-CI
   Dagmar Lenk            : GEPOL surface
   Dimitrios Liakos       : Extrapolation schemes; parallel MDCI
   Dimitrios Manganas     : ROCIS; embedding schemes
   Dimitrios Pantazis     : SARC Basis sets
   Taras Petrenko         : DFT Hessian,TD-DFT gradient, ASA, ECA, R-Raman, ABS, FL, XAS/XES, NRVS
   Peter Pinski           : DLPNO-MP2
   Christoph Reimann      : Effective Core Potentials
   Marius Retegan         : Local ZFS, SOC
   Christoph Riplinger    : Optimizer, TS searches, QM/MM, DLPNO-CCSD(T), (RO)-DLPNO pert. Triples
   Tobias Risthaus        : Range-separated hybrids, TD-DFT gradient, RPA, STAB
   Michael Roemelt        : Restricted open shell CIS
   Masaaki Saitow         : Open-shell DLPNO
   Barbara Sandhoefer     : DKH picture change effects
   Kantharuban Sivalingam : CASSCF convergence, NEVPT2, FIC-MRCI
   Georgi Stoychev        : AutoAux
   Boris Wezisla          : Elementary symmetry handling
   Frank Wennmohs         : Technical directorship


 We gratefully acknowledge several colleagues who have allowed us to
 interface, adapt or use parts of their codes:
   Stefan Grimme, W. Hujo, H. Kruse,             : VdW corrections, initial TS optimization,
                  C. Bannwarth                     DFT functionals, gCP, sTDA/sTD-DF
   Ed Valeev                                     : LibInt (2-el integral package), F12 methods
   Garnet Chan, S. Sharma, J. Yang, R. Olivares  : DMRG
   Ulf Ekstrom                                   : XCFun DFT Library
   Mihaly Kallay                                 : mrcc  (arbitrary order and MRCC methods)
   Andreas Klamt, Michael Diedenhofen            : otool_cosmo (COSMO solvation model)
   Jiri Pittner, Ondrej Demel                    : Mk-CCSD
   Frank Weinhold                                : gennbo (NPA and NBO analysis)
   Christopher J. Cramer and Donald G. Truhlar   : smd solvation model


 Your calculation uses the libint2 library for the computation of 2-el integrals
 For citations please refer to: http://libint.valeyev.net

 This ORCA versions uses:
   CBLAS   interface :  Fast vector & matrix operations
   LAPACKE interface :  Fast linear algebra routines
   SCALAPACK package :  Parallel linear algebra routines


Your calculation utilizes the basis: 6-31G
   H-He, Li-Ne : W. J. Hehre, R. Ditchfield and J.A. Pople, J. Chem. Phys. 56, 2257 (1972).
                 Note: He and Ne are unpublished basis sets taken from the Gaussian program.
                 Note: Li and B from J. D. Dill and J. A. Pople, J. Chem. Phys. 62, 2921 (1975).
   Na - Ar     : M. M. Francl, W. J. Pietro, W. J. Hehre, J. S. Binkley, M. S. Gordon, 
                 D. J. DeFrees and J. A. Pople, J. Chem. Phys. 77, 3654 (1982).
   K - Zn      : V. A. Rassolov, J. A. Pople, M. A. Ratner, and T. L. Windus, J. Chem. Phys. 109, 1223 (1998).

================================================================================
                                        WARNINGS
                       Please study these warnings very carefully!
================================================================================

Warning: TCutStore was < 0. Adjusted to Thresh (uncritical)

INFO   : the flag for use of LIBINT has been found!

================================================================================
                                       INPUT FILE
================================================================================
NAME = orca_orbitals.in
|  1> # Test redundant internal optimization for: agonist4.mol2
|  2> #
|  3> ! B3LYP
|  4> ! PrintBasis 6-31G keepdens
|  5> %output
|  6>  print[P_MOs]1
|  7>  end #output
|  8> * xyz 0 1
|  9>   C1       0.30212980   -2.16613130    1.06290921 
| 10>   C2       0.27547662   -2.38792518   -0.46260008 
| 11>   C3       0.43878840   -1.01316398   -1.13071734 
| 12>   C4       0.92656691   -0.04661048   -0.02517511 
| 13>   C5       0.40039015   -0.65104275    1.30068324 
| 14>   N6       2.40420068    0.13303885    0.02162194 
| 15>   C7       0.32204723    1.36350585   -0.22021423 
| 16>   O8       1.02569205    2.41545219    0.29836977 
| 17>   O9      -0.72911474    1.60882453   -0.75783984 
| 18>   H10      1.15765374   -2.69314412    1.51934327 
| 19>   H11     -0.60069245   -2.58096647    1.54212949 
| 20>   H12     -0.67134953   -2.86174734   -0.77697048 
| 21>   H13      1.07909921   -3.07751821   -0.77240259 
| 22>   H14     -0.53450809   -0.66106691   -1.53591945 
| 23>   H15      1.12283450   -1.04834527   -1.99196871 
| 24>   H16     -0.59718745   -0.23358503    1.54311878 
| 25>   H17      1.04789021   -0.40229294    2.15860108 
| 26>   H18      2.80603380    0.12872397   -0.91445901 
| 27>   H19      1.91975158    2.15898247    0.67561637 
| 28>   H20      2.84887910   -0.62166609    0.53991978 
| 29>  
| 30> *
| 31> %elprop
| 32> Quadrupole True
| 33> end
| 34> %pal
| 35> nprocs                     8
| 36> end
| 37> %plots
| 38> Format CUBE
| 39> MO("orcaHOMO-34.cube",34,0);
| 40> MO("orcaHOMO-1-33.cube",33,0);                    
| 41> MO("orcaHOMO-2-32.cube",32,0);
| 42> MO("orcaLUMO-35.cube",35,0);
| 43> MO("orcaLUMO+1-36.cube",36,0);                    
| 44> MO("orcaLUMO+2-37.cube",37,0);
| 45> endd                         ****END OF INPUT****
================================================================================

                       ****************************
                       * Single Point Calculation *
                       ****************************

---------------------------------
CARTESIAN COORDINATES (ANGSTROEM)
---------------------------------
  C      0.302130   -2.166131    1.062909
  C      0.275477   -2.387925   -0.462600
  C      0.438788   -1.013164   -1.130717
  C      0.926567   -0.046610   -0.025175
  C      0.400390   -0.651043    1.300683
  N      2.404201    0.133039    0.021622
  C      0.322047    1.363506   -0.220214
  O      1.025692    2.415452    0.298370
  O     -0.729115    1.608825   -0.757840
  H      1.157654   -2.693144    1.519343
  H     -0.600692   -2.580966    1.542129
  H     -0.671350   -2.861747   -0.776970
  H      1.079099   -3.077518   -0.772403
  H     -0.534508   -0.661067   -1.535919
  H      1.122834   -1.048345   -1.991969
  H     -0.597187   -0.233585    1.543119
  H      1.047890   -0.402293    2.158601
  H      2.806034    0.128724   -0.914459
  H      1.919752    2.158982    0.675616
  H      2.848879   -0.621666    0.539920

----------------------------
CARTESIAN COORDINATES (A.U.)
----------------------------
  NO LB      ZA    FRAG     MASS         X           Y           Z
   0 C     6.0000    0    12.011    0.570943   -4.093395    2.008607
   1 C     6.0000    0    12.011    0.520575   -4.512525   -0.874187
   2 C     6.0000    0    12.011    0.829190   -1.914602   -2.136746
   3 C     6.0000    0    12.011    1.750958   -0.088081   -0.047574
   4 C     6.0000    0    12.011    0.756628   -1.230292    2.457935
   5 N     7.0000    0    14.007    4.543281    0.251407    0.040860
   6 C     6.0000    0    12.011    0.608581    2.576653   -0.416145
   7 O     8.0000    0    15.999    1.938277    4.564543    0.563837
   8 O     8.0000    0    15.999   -1.377827    3.040238   -1.432110
   9 H     1.0000    0     1.008    2.187649   -5.089305    2.871143
  10 H     1.0000    0     1.008   -1.135144   -4.877320    2.914202
  11 H     1.0000    0     1.008   -1.268667   -5.407919   -1.468261
  12 H     1.0000    0     1.008    2.039202   -5.815667   -1.459629
  13 H     1.0000    0     1.008   -1.010074   -1.249235   -2.902467
  14 H     1.0000    0     1.008    2.121850   -1.981085   -3.764275
  15 H     1.0000    0     1.008   -1.128521   -0.441412    2.916072
  16 H     1.0000    0     1.008    1.980226   -0.760223    4.079165
  17 H     1.0000    0     1.008    5.302635    0.243253   -1.728077
  18 H     1.0000    0     1.008    3.627805    4.079886    1.276730
  19 H     1.0000    0     1.008    5.383601   -1.174779    1.020301

--------------------------------
INTERNAL COORDINATES (ANGSTROEM)
--------------------------------
 C      0   0   0     0.000000000000     0.00000000     0.00000000
 C      1   0   0     1.541778684211     0.00000000     0.00000000
 C      2   1   0     1.537211686015   107.43075809     0.00000000
 C      3   2   1     1.547377512275   106.35525511    14.43239193
 C      1   2   3     1.536777439991   107.21875405     3.17616954
 N      4   3   2     1.489249946753   114.24076103    95.51074382
 C      4   3   2     1.546580863056   110.86749767   215.66942415
 O      7   4   3     1.367712140769   116.89485121   205.46677926
 O      7   4   3     1.205887241188   125.62166862    27.50513867
 H      1   2   3     1.103628458987   110.72711494   242.03492640
 H      1   2   3     1.103099410809   111.19842394   124.49531092
 H      2   1   3     1.104452781257   110.98792690   239.03434603
 H      2   1   3     1.103324707140   110.80247812   121.49400546
 H      3   2   1     1.111515701237   110.40854226   255.37256674
 H      3   2   1     1.100413882327   112.18610004   137.86585285
 H      5   1   2     1.108245012199   110.34422822    99.78190460
 H      5   1   2     1.103247848793   112.34181255   217.65235833
 H      6   4   3     1.018693290187   111.22287135    36.47963587
 H      8   7   4     1.003710196059   113.84381891     5.89295814
 H      6   4   3     1.017816827638   111.10272047   277.39198523

---------------------------
INTERNAL COORDINATES (A.U.)
---------------------------
 C      0   0   0     0.000000000000     0.00000000     0.00000000
 C      1   0   0     2.913539472275     0.00000000     0.00000000
 C      2   1   0     2.904909096432   107.43075809     0.00000000
 C      3   2   1     2.924119723988   106.35525511    14.43239193
 C      1   2   3     2.904088490372   107.21875405     3.17616954
 N      4   3   2     2.814274544319   114.24076103    95.51074382
 C      4   3   2     2.922614275139   110.86749767   215.66942415
 O      7   4   3     2.584601376093   116.89485121   205.46677926
 O      7   4   3     2.278796634234   125.62166862    27.50513867
 H      1   2   3     2.085555541087   110.72711494   242.03492640
 H      1   2   3     2.084555784919   111.19842394   124.49531092
 H      2   1   3     2.087113284424   110.98792690   239.03434603
 H      2   1   3     2.084981533283   110.80247812   121.49400546
 H      3   2   1     2.100460268892   110.40854226   255.37256674
 H      3   2   1     2.079480871563   112.18610004   137.86585285
 H      5   1   2     2.094279562341   110.34422822    99.78190460
 H      5   1   2     2.084836292056   112.34181255   217.65235833
 H      6   4   3     1.925051332916   111.22287135    36.47963587
 H      8   7   4     1.896737388375   113.84381891     5.89295814
 H      6   4   3     1.923395058732   111.10272047   277.39198523

---------------------
BASIS SET INFORMATION
---------------------
There are 4 groups of distinct atoms

 Group   1 Type C   : 10s4p contracted to 3s2p pattern {631/31}
 Group   2 Type N   : 10s4p contracted to 3s2p pattern {631/31}
 Group   3 Type O   : 10s4p contracted to 3s2p pattern {631/31}
 Group   4 Type H   : 4s contracted to 2s pattern {31}

Atom   0C    basis set group =>   1
Atom   1C    basis set group =>   1
Atom   2C    basis set group =>   1
Atom   3C    basis set group =>   1
Atom   4C    basis set group =>   1
Atom   5N    basis set group =>   2
Atom   6C    basis set group =>   1
Atom   7O    basis set group =>   3
Atom   8O    basis set group =>   3
Atom   9H    basis set group =>   4
Atom  10H    basis set group =>   4
Atom  11H    basis set group =>   4
Atom  12H    basis set group =>   4
Atom  13H    basis set group =>   4
Atom  14H    basis set group =>   4
Atom  15H    basis set group =>   4
Atom  16H    basis set group =>   4
Atom  17H    basis set group =>   4
Atom  18H    basis set group =>   4
Atom  19H    basis set group =>   4

-------------------------
BASIS SET IN INPUT FORMAT
-------------------------

 # Basis set for element : H 
 NewGTO H 
 S 3 
   1      18.7311370000      0.0334945995
   2       2.8253937000      0.2347269467
   3       0.6401217000      0.8137573184
 S 1 
   1       0.1612778000      1.0000000000
  end;

 # Basis set for element : C 
 NewGTO C 
 S 6 
   1    3047.5249000000      0.0018347002
   2     457.3695100000      0.0140373012
   3     103.9486900000      0.0688426061
   4      29.2101550000      0.2321844206
   5       9.2866630000      0.4679413416
   6       3.1639270000      0.3623120322
 S 3 
   1       7.8682724000     -0.1193324086
   2       1.8812885000     -0.1608542116
   3       0.5442493000      1.1434564826
 P 3 
   1       7.8682724000      0.0689990956
   2       1.8812885000      0.3164239798
   3       0.5442493000      0.7443082524
 S 1 
   1       0.1687144000      1.0000000000
 P 1 
   1       0.1687144000      1.0000000000
  end;

 # Basis set for element : N 
 NewGTO N 
 S 6 
   1    4173.5110000000      0.0018347994
   2     627.4579000000      0.0139949958
   3     142.9021000000      0.0685869792
   4      40.2343300000      0.2322409295
   5      12.8202100000      0.4690698576
   6       4.3904370000      0.3604548906
 S 3 
   1      11.6263580000     -0.1149610229
   2       2.7162800000     -0.1691180337
   3       0.7722180000      1.1458522281
 P 3 
   1      11.6263580000      0.0675800232
   2       2.7162800000      0.3239071114
   3       0.7722180000      0.7408952549
 S 1 
   1       0.2120313000      1.0000000000
 P 1 
   1       0.2120313000      1.0000000000
  end;

 # Basis set for element : O 
 NewGTO O 
 S 6 
   1    5484.6717000000      0.0018310998
   2     825.2349500000      0.0139500985
   3     188.0469600000      0.0684450927
   4      52.9645000000      0.2327142753
   5      16.8975700000      0.4701929501
   6       5.7996353000      0.3585208619
 S 3 
   1      15.5396160000     -0.1107775038
   2       3.5999336000     -0.1480263051
   3       1.0137618000      1.1307670390
 P 3 
   1      15.5396160000      0.0708742995
   2       3.5999336000      0.3397527978
   3       1.0137618000      0.7271585953
 S 1 
   1       0.2700058000      1.0000000000
 P 1 
   1       0.2700058000      1.0000000000
  end;



           ************************************************************
           *        Program running with 8 parallel MPI-processes     *
           *              working on a common directory               *
           ************************************************************
------------------------------------------------------------------------------
                           ORCA GTO INTEGRAL CALCULATION
------------------------------------------------------------------------------

                         BASIS SET STATISTICS AND STARTUP INFO

 # of primitive gaussian shells          ...  170
 # of primitive gaussian functions       ...  242
 # of contracted shells                  ...   67
 # of contracted basis functions         ...  103
 Highest angular momentum                ...    1
 Maximum contraction depth               ...    6
 Integral package used                   ... LIBINT
 Integral threshhold            Thresh   ...  1.000e-10
 Primitive cut-off              TCut     ...  1.000e-11


------------------------------ INTEGRAL EVALUATION ----------------------------


 * One electron integrals 
 Pre-screening matrix                    ... done
 Shell pair data                         ... done (   0.001 sec)



           ************************************************************
           *        Program running with 8 parallel MPI-processes     *
           *              working on a common directory               *
           ************************************************************
-------------------------------------------------------------------------------
                                 ORCA SCF
-------------------------------------------------------------------------------

------------
SCF SETTINGS
------------
Hamiltonian:
 Density Functional     Method          .... DFT(GTOs)
 Exchange Functional    Exchange        .... B88
   X-Alpha parameter    XAlpha          ....  0.666667
   Becke's b parameter  XBeta           ....  0.004200
 Correlation Functional Correlation     .... LYP
 LDA part of GGA corr.  LDAOpt          .... VWN-5
 Gradients option       PostSCFGGA      .... off
 Hybrid DFT is turned on
   Fraction HF Exchange ScalHFX         ....  0.200000
   Scaling of DF-GGA-X  ScalDFX         ....  0.720000
   Scaling of DF-GGA-C  ScalDFC         ....  0.810000
   Scaling of DF-LDA-C  ScalLDAC        ....  1.000000
   Perturbative correction              ....  0.000000
   NL short-range parameter             ....  4.800000


General Settings:
 Integral files         IntName         .... orca_orbitals
 Hartree-Fock type      HFTyp           .... RHF
 Total Charge           Charge          ....    0
 Multiplicity           Mult            ....    1
 Number of Electrons    NEL             ....   70
 Basis Dimension        Dim             ....  103
 Nuclear Repulsion      ENuc            ....    484.1566593403 Eh

Convergence Acceleration:
 DIIS                   CNVDIIS         .... on
   Start iteration      DIISMaxIt       ....    12
   Startup error        DIISStart       ....  0.200000
   # of expansion vecs  DIISMaxEq       ....     5
   Bias factor          DIISBfac        ....   1.050
   Max. coefficient     DIISMaxC        ....  10.000
 Newton-Raphson         CNVNR           .... off
 SOSCF                  CNVSOSCF        .... on
   Start iteration      SOSCFMaxIt      ....   150
   Startup grad/error   SOSCFStart      ....  0.003300
 Level Shifting         CNVShift        .... on
   Level shift para.    LevelShift      ....    0.2500
   Turn off err/grad.   ShiftErr        ....    0.0010
 Zerner damping         CNVZerner       .... off
 Static damping         CNVDamp         .... on
   Fraction old density DampFac         ....    0.7000
   Max. Damping (<1)    DampMax         ....    0.9800
   Min. Damping (>=0)   DampMin         ....    0.0000
   Turn off err/grad.   DampErr         ....    0.1000
 Fernandez-Rico         CNVRico         .... off

SCF Procedure:
 Maximum # iterations   MaxIter         ....   125
 SCF integral mode      SCFMode         .... Direct
   Integral package                     .... LIBINT
 Reset frequeny         DirectResetFreq ....    20
 Integral Threshold     Thresh          ....  1.000e-10 Eh
 Primitive CutOff       TCut            ....  1.000e-11 Eh

Convergence Tolerance:
 Convergence Check Mode ConvCheckMode   .... Total+1el-Energy
 Convergence forced     ConvForced      .... 0
 Energy Change          TolE            ....  1.000e-06 Eh
 1-El. energy change                    ....  1.000e-03 Eh
 Orbital Gradient       TolG            ....  5.000e-05
 Orbital Rotation angle TolX            ....  5.000e-05
 DIIS Error             TolErr          ....  1.000e-06


Diagonalization of the overlap matrix:
Smallest eigenvalue                        ... 3.418e-03
Time for diagonalization                   ...    0.002 sec
Threshold for overlap eigenvalues          ... 1.000e-08
Number of eigenvalues below threshold      ... 0
Time for construction of square roots      ...    0.001 sec
Total time needed                          ...    0.003 sec

-------------------
DFT GRID GENERATION
-------------------

General Integration Accuracy     IntAcc      ...  4.340
Radial Grid Type                 RadialGrid  ... Gauss-Chebyshev
Angular Grid (max. acc.)         AngularGrid ... Lebedev-110
Angular grid pruning method      GridPruning ... 3 (G Style)
Weight generation scheme         WeightScheme... Becke
Basis function cutoff            BFCut       ...    1.0000e-10
Integration weight cutoff        WCut        ...    1.0000e-14
Grids for H and He will be reduced by one unit

# of grid points (after initial pruning)     ...  23804 (   0.0 sec)
# of grid points (after weights+screening)   ...  21680 (   0.0 sec)
nearest neighbour list constructed           ...    0.0 sec
Grid point re-assignment to atoms done       ...    0.0 sec
Grid point division into batches done        ...    0.0 sec
Reduced shell lists constructed in    0.0 sec

Total number of grid points                  ...    21680
Total number of batches                      ...      348
Average number of points per batch           ...       62
Average number of grid points per atom       ...     1084
Average number of shells per batch           ...    54.71 (81.66%)
Average number of basis functions per batch  ...    86.22 (83.71%)
Average number of large shells per batch     ...    44.33 (81.03%)
Average number of large basis fcns per batch ...    70.91 (82.24%)
Maximum spatial batch extension              ...   2.94,  2.88,  3.50 au
Average spatial batch extension              ...   0.19,  0.19,  0.20 au

Time for grid setup =    0.071 sec

------------------------------
INITIAL GUESS: MODEL POTENTIAL
------------------------------
Loading Hartree-Fock densities                     ... done
Calculating cut-offs                               ... done
Setting up the integral package                    ... done
Initializing the effective Hamiltonian             ... done
Starting the Coulomb interaction                   ... done (   0.0 sec)
Reading the grid                                   ... done
Mapping shells                                     ... done
Starting the XC term evaluation                    ... done (   0.0 sec)
  promolecular density results
     # of electrons  =     70.004173553
     EX              =    -57.080637180
     EC              =     -2.366700901
     EX+EC           =    -59.447338081
Transforming the Hamiltonian                       ... done (   0.0 sec)
Diagonalizing the Hamiltonian                      ... done (   0.0 sec)
Back transforming the eigenvectors                 ... done (   0.0 sec)
Now organizing SCF variables                       ... done
                      ------------------
                      INITIAL GUESS DONE (   0.2 sec)
                      ------------------
--------------
SCF ITERATIONS
--------------
ITER       Energy         Delta-E        Max-DP      RMS-DP      [F,P]     Damp
               ***  Starting incremental Fock matrix formation  ***
  0   -439.7184618302   0.000000000000 0.12993398  0.00505211  0.2739258 0.7000
  1   -439.8898544243  -0.171392594087 0.07499661  0.00315539  0.1140622 0.7000
                               ***Turning on DIIS***
  2   -439.9487215804  -0.058867156099 0.07084629  0.00438777  0.0360925 0.0000
  3   -440.0470020828  -0.098280502364 0.04405259  0.00210579  0.0637714 0.0000
  4   -440.0681308973  -0.021128814567 0.01142211  0.00071471  0.0144045 0.0000
  5   -440.0696318164  -0.001500919066 0.00518279  0.00022072  0.0071416 0.0000
                      *** Initiating the SOSCF procedure ***
                           *** Shutting down DIIS ***
                      *** Re-Reading the Fockian *** 
                      *** Removing any level shift *** 
ITER      Energy       Delta-E        Grad      Rot      Max-DP    RMS-DP
  6   -440.06971451  -0.0000826924  0.000365  0.000365  0.001943  0.000069
               *** Restarting incremental Fock matrix formation ***
  7   -440.06972123  -0.0000067186  0.000131  0.000338  0.000683  0.000036
  8   -440.06972100   0.0000002316  0.000233  0.000307  0.000476  0.000018
  9   -440.06972200  -0.0000010061  0.000065  0.000163  0.000193  0.000009
 10   -440.06972195   0.0000000561  0.000095  0.000096  0.000164  0.000005
                 **** Energy Check signals convergence ****
              ***Rediagonalizing the Fockian in SOSCF/NRSCF***

               *****************************************************
               *                     SUCCESS                       *
               *           SCF CONVERGED AFTER  11 CYCLES          *
               *****************************************************

Setting up the final grid:

General Integration Accuracy     IntAcc      ...  4.670
Radial Grid Type                 RadialGrid  ... Gauss-Chebyshev
Angular Grid (max. acc.)         AngularGrid ... Lebedev-302
Angular grid pruning method      GridPruning ... 3 (G Style)
Weight generation scheme         WeightScheme... Becke
Basis function cutoff            BFCut       ...    1.0000e-10
Integration weight cutoff        WCut        ...    1.0000e-14
Grids for H and He will be reduced by one unit

# of grid points (after initial pruning)     ...  93242 (   0.0 sec)
# of grid points (after weights+screening)   ...  83384 (   0.1 sec)
nearest neighbour list constructed           ...    0.0 sec
Grid point re-assignment to atoms done       ...    0.0 sec
Grid point division into batches done        ...    0.3 sec
Reduced shell lists constructed in    0.4 sec

Total number of grid points                  ...    83384
Total number of batches                      ...     1314
Average number of points per batch           ...       63
Average number of grid points per atom       ...     4169
Average number of shells per batch           ...    54.16 (80.83%)
Average number of basis functions per batch  ...    85.81 (83.31%)
Average number of large shells per batch     ...    43.86 (80.98%)
Average number of large basis fcns per batch ...    70.75 (82.45%)
Maximum spatial batch extension              ...   1.96,  2.30,  2.50 au
Average spatial batch extension              ...   0.12,  0.13,  0.12 au

Final grid set up in    0.5 sec
Final integration                            ... done (   0.1 sec)
Change in XC energy                          ...     0.000319139
Integrated number of electrons               ...    70.000107525
Previous integrated no of electrons          ...    70.005082909

----------------
TOTAL SCF ENERGY
----------------

Total Energy       :         -440.06940290 Eh          -11974.89724 eV

Components:
Nuclear Repulsion  :          484.15665934 Eh           13174.57248 eV
Electronic Energy  :         -924.22606224 Eh          -25149.46973 eV
One Electron Energy:        -1558.20383771 Eh          -42400.88204 eV
Two Electron Energy:          633.97777548 Eh           17251.41232 eV

Virial components:
Potential Energy   :         -877.99262563 Eh          -23891.39396 eV
Kinetic Energy     :          437.92322273 Eh           11916.49671 eV
Virial Ratio       :            2.00490081


DFT components:
N(Alpha)           :       35.000053762625 electrons
N(Beta)            :       35.000053762625 electrons
N(Total)           :       70.000107525251 electrons
E(X)               :      -46.147668275788 Eh       
E(C)               :       -2.790248160316 Eh       
E(XC)              :      -48.937916436104 Eh       

---------------
SCF CONVERGENCE
---------------

  Last Energy change         ...   -8.8608e-08  Tolerance :   1.0000e-06
  Last MAX-Density change    ...    4.0677e-05  Tolerance :   1.0000e-05
  Last RMS-Density change    ...    1.9341e-06  Tolerance :   1.0000e-06
  Last Orbital Gradient      ...    1.3076e-05  Tolerance :   5.0000e-05
  Last Orbital Rotation      ...    2.5831e-05  Tolerance :   5.0000e-05

             **** THE GBW FILE WAS UPDATED (orca_orbitals.gbw) ****
             **** DENSITY FILE WAS UPDATED (orca_orbitals.scfp.tmp) ****
             **** ENERGY FILE WAS UPDATED (orca_orbitals.en.tmp) ****
----------------
ORBITAL ENERGIES
----------------

  NO   OCC          E(Eh)            E(eV) 
   0   2.0000     -19.164658      -521.4968 
   1   2.0000     -19.123365      -520.3732 
   2   2.0000     -14.338295      -390.1648 
   3   2.0000     -10.307149      -280.4718 
   4   2.0000     -10.243875      -278.7500 
   5   2.0000     -10.196009      -277.4475 
   6   2.0000     -10.188057      -277.2311 
   7   2.0000     -10.184757      -277.1413 
   8   2.0000     -10.183803      -277.1154 
   9   2.0000      -1.094374       -29.7794 
  10   2.0000      -1.012416       -27.5492 
  11   2.0000      -0.920281       -25.0421 
  12   2.0000      -0.826990       -22.5035 
  13   2.0000      -0.729541       -19.8518 
  14   2.0000      -0.724176       -19.7058 
  15   2.0000      -0.619474       -16.8567 
  16   2.0000      -0.585076       -15.9207 
  17   2.0000      -0.578566       -15.7436 
  18   2.0000      -0.531232       -14.4556 
  19   2.0000      -0.499735       -13.5985 
  20   2.0000      -0.492227       -13.3942 
  21   2.0000      -0.462113       -12.5747 
  22   2.0000      -0.431955       -11.7541 
  23   2.0000      -0.425023       -11.5655 
  24   2.0000      -0.412183       -11.2161 
  25   2.0000      -0.405252       -11.0275 
  26   2.0000      -0.363987        -9.9046 
  27   2.0000      -0.356950        -9.7131 
  28   2.0000      -0.354780        -9.6541 
  29   2.0000      -0.349553        -9.5118 
  30   2.0000      -0.333960        -9.0875 
  31   2.0000      -0.321965        -8.7611 
  32   2.0000      -0.293140        -7.9767 
  33   2.0000      -0.277224        -7.5436 
  34   2.0000      -0.243841        -6.6352 
  35   0.0000       0.010989         0.2990 
  36   0.0000       0.048343         1.3155 
  37   0.0000       0.075796         2.0625 
  38   0.0000       0.095850         2.6082 
  39   0.0000       0.110275         3.0007 
  40   0.0000       0.117424         3.1953 
  41   0.0000       0.135362         3.6834 
  42   0.0000       0.153157         4.1676 
  43   0.0000       0.159433         4.3384 
  44   0.0000       0.166385         4.5276 
  45   0.0000       0.170946         4.6517 
  46   0.0000       0.186509         5.0752 
  47   0.0000       0.202669         5.5149 
  48   0.0000       0.221182         6.0187 
  49   0.0000       0.241942         6.5836 
  50   0.0000       0.252691         6.8761 
  51   0.0000       0.277694         7.5564 
  52   0.0000       0.300769         8.1844 
  53   0.0000       0.318710         8.6725 
  54   0.0000       0.360197         9.8015 
  55   0.0000       0.400396        10.8953 
  56   0.0000       0.531843        14.4722 
  57   0.0000       0.548562        14.9271 
  58   0.0000       0.560787        15.2598 
  59   0.0000       0.579602        15.7718 
  60   0.0000       0.593759        16.1570 
  61   0.0000       0.617660        16.8074 
  62   0.0000       0.633481        17.2379 
  63   0.0000       0.660840        17.9824 
  64   0.0000       0.663782        18.0624 
  65   0.0000       0.666493        18.1362 
  66   0.0000       0.702446        19.1145 
  67   0.0000       0.711624        19.3643 
  68   0.0000       0.727093        19.7852 
  69   0.0000       0.755793        20.5662 
  70   0.0000       0.779936        21.2231 
  71   0.0000       0.790351        21.5065 
  72   0.0000       0.801547        21.8112 
  73   0.0000       0.823907        22.4196 
  74   0.0000       0.840181        22.8625 
  75   0.0000       0.853857        23.2346 
  76   0.0000       0.880560        23.9613 
  77   0.0000       0.886873        24.1330 
  78   0.0000       0.892779        24.2938 
  79   0.0000       0.909367        24.7451 
  80   0.0000       0.923810        25.1382 
  81   0.0000       0.927692        25.2438 
  82   0.0000       0.947879        25.7931 
  83   0.0000       0.951043        25.8792 
  84   0.0000       0.963887        26.2287 
  85   0.0000       0.970236        26.4015 
  86   0.0000       0.992452        27.0060 
  87   0.0000       1.027480        27.9591 
  88   0.0000       1.045540        28.4506 
  89   0.0000       1.069255        29.0959 
  90   0.0000       1.096579        29.8394 
  91   0.0000       1.165894        31.7256 
  92   0.0000       1.193598        32.4795 
  93   0.0000       1.227521        33.4026 
  94   0.0000       1.278177        34.7810 
  95   0.0000       1.344616        36.5889 
  96   0.0000       1.411311        38.4037 
  97   0.0000       1.474787        40.1310 
  98   0.0000       1.618183        44.0330 
  99   0.0000       1.726445        46.9789 
 100   0.0000       1.902677        51.7745 
 101   0.0000       1.938301        52.7439 
 102   0.0000       2.075711        56.4830 
------------------
MOLECULAR ORBITALS
------------------
                      0         1         2         3         4         5   
                 -19.16466 -19.12336 -14.33830 -10.30715 -10.24388 -10.19601
                   2.00000   2.00000   2.00000   2.00000   2.00000   2.00000
                  --------  --------  --------  --------  --------  --------
  0C   1s        -0.000012  0.000041  0.000047 -0.000082  0.000220  0.007289
  0C   2s        -0.000132  0.000357  0.000450 -0.000375  0.000607 -0.001277
  0C   1pz       -0.000033 -0.000028 -0.000130 -0.000063  0.000093 -0.000077
  0C   1px       -0.000013  0.000009  0.000071 -0.000143  0.000177  0.000014
  0C   1py       -0.000050  0.000012  0.000017  0.000029  0.000275 -0.000338
  0C   3s         0.000530 -0.001569 -0.001122  0.002109 -0.000356  0.010814
  0C   2pz        0.000514  0.000961  0.000515  0.000588 -0.000142  0.000088
  0C   2px        0.000511 -0.000490 -0.000384  0.000697 -0.000936  0.000315
  0C   2py        0.000623 -0.000523 -0.000881  0.000711  0.000126  0.005281
  1C   1s         0.000004 -0.000027  0.000052 -0.000052  0.000148 -0.000320
  1C   2s         0.000007 -0.000171  0.000484 -0.000235  0.000389 -0.000193
  1C   1pz       -0.000023  0.000005  0.000102  0.000025 -0.000174 -0.000160
  1C   1px        0.000064 -0.000001  0.000041 -0.000141  0.000173  0.000112
  1C   1py       -0.000032  0.000065 -0.000003  0.000016  0.000218 -0.000025
  1C   3s        -0.000674  0.002251 -0.001624  0.001022  0.000821 -0.001489
  1C   2pz        0.000766  0.000253  0.000183 -0.000319  0.000550 -0.000346
  1C   2px       -0.000423  0.000203 -0.000510  0.000687 -0.000615 -0.000511
  1C   2py       -0.000384  0.000706 -0.000895  0.000065  0.000692 -0.001014
  2C   1s         0.000033  0.000014 -0.000059 -0.000180 -0.000910 -0.000905
  2C   2s         0.000446  0.000052 -0.000819 -0.000848  0.001679 -0.000931
  2C   1pz        0.000177 -0.000031 -0.000278  0.000020 -0.000059 -0.000144
  2C   1px       -0.000020 -0.000070 -0.000344  0.000022 -0.000050  0.000176
  2C   1py        0.000303 -0.000163 -0.000027 -0.000266 -0.000177 -0.000134
  2C   3s         0.000863 -0.003261  0.001720  0.002529 -0.014295  0.002711
  2C   2pz        0.000520 -0.002000  0.001074  0.000518 -0.005084  0.001159
  2C   2px       -0.000471 -0.000100 -0.000161  0.000364 -0.001751 -0.000819
  2C   2py       -0.001354  0.000434 -0.000764  0.001740 -0.004056  0.000549
  3C   1s         0.000023  0.000040 -0.000024  0.001056 -0.995988 -0.001240
  3C   2s         0.000548  0.000542 -0.001152 -0.000512 -0.042297 -0.000535
  3C   1pz        0.000012  0.000197 -0.000010  0.000024 -0.000100 -0.000256
  3C   1px       -0.000327  0.000191 -0.000160  0.000085 -0.000031  0.000116
  3C   1py        0.000209  0.000298  0.000190 -0.000433 -0.000162  0.000037
  3C   3s        -0.000726 -0.004081  0.006452  0.005008  0.058057  0.004103
  3C   2pz        0.000355 -0.003944 -0.000028 -0.000170  0.000054  0.004922
  3C   2px        0.004856 -0.003638  0.006992 -0.001971 -0.002933 -0.001894
  3C   2py        0.000850 -0.003838 -0.000692  0.005791  0.000802 -0.003433
  4C   1s        -0.000043 -0.000053 -0.000044 -0.000170 -0.001192  0.995490
  4C   2s        -0.000426 -0.000470 -0.000579 -0.000756  0.001531  0.038883
  4C   1pz       -0.000044  0.000151  0.000235  0.000148  0.000160 -0.000238
  4C   1px        0.000014  0.000029 -0.000172 -0.000050 -0.000099  0.000051
  4C   1py       -0.000196  0.000001 -0.000022 -0.000402 -0.000196  0.000211
  4C   3s         0.001630  0.002215  0.001348  0.000933 -0.013921 -0.039487
  4C   2pz       -0.000929 -0.001022 -0.000976 -0.001015  0.005650  0.003363
  4C   2px       -0.001108  0.001475 -0.000743  0.000564 -0.001546 -0.000416
  4C   2py        0.001637  0.000455 -0.000445  0.002289 -0.002695  0.001706
  5N   1s         0.000012  0.000003  0.995301 -0.000049  0.000053 -0.000033
  5N   2s         0.000157  0.000175  0.032388 -0.000674  0.001147 -0.000530
  5N   1pz        0.000045 -0.000095 -0.000853  0.000126  0.000030 -0.000150
  5N   1px       -0.000021 -0.000194 -0.000462  0.000218 -0.000340  0.000229
  5N   1py       -0.000017  0.000145 -0.001640 -0.000215 -0.000051  0.000059
  5N   3s        -0.002182  0.001878 -0.024565  0.001335 -0.009257  0.001148
  5N   2pz       -0.000285  0.001283  0.001357 -0.000986 -0.000055  0.000386
  5N   2px        0.001025 -0.000449  0.003618 -0.001302  0.004723 -0.001302
  5N   2py        0.000958 -0.001102  0.002943  0.000864  0.000870 -0.000172
  6C   1s        -0.000013 -0.000284 -0.000047  0.995138  0.001084  0.000003
  6C   2s         0.000596 -0.000457 -0.000660  0.035087  0.001414 -0.000892
  6C   1pz        0.000031 -0.000010 -0.000035 -0.000110 -0.000016 -0.000113
  6C   1px       -0.000106 -0.000232 -0.000174 -0.000573  0.000102 -0.000126
  6C   1py       -0.000148  0.000007  0.000097  0.000304  0.000051  0.000303
  6C   3s        -0.006223 -0.009513  0.000550 -0.018220 -0.012789  0.003998
  6C   2pz       -0.004715  0.006896  0.000267 -0.002311 -0.000660  0.000530
  6C   2px       -0.007165  0.013383  0.000018 -0.004517 -0.003238  0.001262
  6C   2py       -0.006909 -0.002234 -0.001986  0.008128  0.009266 -0.001734
  7O   1s        -0.995143 -0.000842 -0.000000  0.000033  0.000016  0.000015
  7O   2s        -0.030004  0.000658 -0.000098 -0.000118  0.000490  0.000247
  7O   1pz        0.000119 -0.000045  0.000124  0.000081 -0.000067  0.000016
  7O   1px       -0.000420 -0.000034  0.000036  0.000134 -0.000174  0.000019
  7O   1py        0.002086 -0.000212  0.000092  0.000444 -0.000106 -0.000082
  7O   3s         0.021858 -0.002813  0.000271  0.000311 -0.001160 -0.000905
  7O   2pz       -0.001375 -0.000234 -0.000678  0.001261  0.000526 -0.000059
  7O   2px       -0.000995 -0.000973 -0.000663  0.001895  0.001267 -0.000076
  7O   2py       -0.005576  0.001983 -0.000228 -0.000256 -0.000110  0.000778
  8O   1s         0.000905 -0.995178 -0.000011 -0.000153  0.000012  0.000008
  8O   2s         0.000740 -0.030652 -0.000240  0.000097  0.000374  0.000197
  8O   1pz        0.000030 -0.001140 -0.000029 -0.000273  0.000095  0.000040
  8O   1px        0.000073 -0.002210 -0.000008 -0.000471  0.000068  0.000010
  8O   1py       -0.000110  0.000567  0.000007  0.000235  0.000054 -0.000092
  8O   3s        -0.003421  0.026631  0.000788 -0.002988 -0.000794 -0.000407
  8O   2pz       -0.000031  0.003506  0.000177 -0.001112 -0.000437 -0.000259
  8O   2px       -0.000469  0.006841  0.000313 -0.002371 -0.000176 -0.000203
  8O   2py        0.001869 -0.001777  0.000134 -0.001103 -0.001326  0.000600
  9H   1s        -0.000067  0.000073  0.000153 -0.000169  0.000112 -0.000405
  9H   2s        -0.000152  0.000069 -0.000201 -0.000528  0.000691  0.000254
 10H   1s         0.000023  0.000003 -0.000010 -0.000048 -0.000024 -0.000375
 10H   2s         0.000117 -0.000251 -0.000386  0.000164 -0.000667 -0.000003
 11H   1s        -0.000007 -0.000083  0.000023 -0.000012 -0.000057  0.000009
 11H   2s        -0.000107  0.000061 -0.000252  0.000318 -0.000428 -0.000408
 12H   1s         0.000081 -0.000118  0.000112 -0.000136  0.000043  0.000083
 12H   2s         0.000171  0.000046  0.000168 -0.000391  0.000638  0.000078
 13H   1s         0.000111  0.000210 -0.000078 -0.000285  0.000595 -0.000307
 13H   2s        -0.000447 -0.000220  0.000380  0.000047  0.000344 -0.000677
 14H   1s         0.000069 -0.000047 -0.000053 -0.000157  0.000500  0.000006
 14H   2s         0.000271 -0.000433 -0.000077 -0.000361  0.000062  0.000617
 15H   1s        -0.000276 -0.000185 -0.000114 -0.000445  0.000522 -0.000042
 15H   2s        -0.000944  0.001134 -0.000033  0.000844  0.000829  0.005773
 16H   1s        -0.000067 -0.000103 -0.000009 -0.000122  0.000487 -0.000168
 16H   2s         0.000310 -0.000324  0.000371 -0.000432  0.000002  0.005456
 17H   1s        -0.000105  0.000202  0.000180 -0.000417  0.000266  0.000079
 17H   2s        -0.000082  0.000456  0.003591 -0.000140 -0.000618  0.000645
 18H   1s        -0.000675  0.000423 -0.000060 -0.000359 -0.000072  0.000222
 18H   2s        -0.002209 -0.000317  0.001174 -0.000146 -0.000566 -0.000260
 19H   1s         0.000223 -0.000341  0.000113  0.000197  0.000345 -0.000228
 19H   2s         0.000102 -0.000604  0.003763  0.000992 -0.000187  0.000291
                      6         7         8         9        10        11   
                 -10.18806 -10.18476 -10.18380  -1.09437  -1.01242  -0.92028
                   2.00000   2.00000   2.00000   2.00000   2.00000   2.00000
                  --------  --------  --------  --------  --------  --------
  0C   1s        -0.995363 -0.016581 -0.001725 -0.000931 -0.000222  0.025500
  0C   2s        -0.038791 -0.002202  0.000009  0.001873 -0.002443 -0.047045
  0C   1pz       -0.000061  0.000312 -0.000156 -0.000378  0.000355  0.009685
  0C   1px       -0.000129  0.000026 -0.000060  0.000051  0.000217 -0.004164
  0C   1py       -0.000055  0.000036 -0.000010  0.001131 -0.000265 -0.017590
  0C   3s         0.040259  0.011577  0.002471  0.000043  0.012714 -0.027845
  0C   2pz       -0.002595 -0.005156 -0.000924  0.001333 -0.000646  0.004308
  0C   2px        0.000701  0.000165  0.000090  0.000396  0.002899 -0.002006
  0C   2py        0.002822 -0.000156  0.000886  0.000227  0.009377 -0.002549
  1C   1s        -0.016517  0.993608  0.059506 -0.000942  0.000504  0.024561
  1C   2s         0.000940  0.038608  0.003951  0.001658 -0.000301 -0.044419
  1C   1pz        0.000302  0.000002 -0.000172 -0.000041 -0.000329 -0.005095
  1C   1px       -0.000007  0.000071  0.000029  0.000218  0.000503 -0.004659
  1C   1py        0.000027 -0.000031  0.000326  0.001137 -0.001114 -0.019052
  1C   3s        -0.010821 -0.039714 -0.013578  0.001329 -0.012688 -0.034864
  1C   2pz       -0.004919 -0.001910  0.001464  0.001764  0.005128 -0.001255
  1C   2px       -0.000424 -0.000588 -0.000573 -0.000570 -0.003611 -0.002936
  1C   2py       -0.001443 -0.003044 -0.005268  0.000280 -0.003999 -0.006294
  2C   1s         0.000732  0.059386 -0.993738 -0.004546  0.002716  0.043365
  2C   2s         0.000190  0.000753 -0.038918  0.009621 -0.002275 -0.084623
  2C   1pz        0.000122 -0.000215 -0.000140  0.003015  0.000126 -0.029536
  2C   1px       -0.000058  0.000009 -0.000060  0.000086  0.001835 -0.017597
  2C   1py       -0.000146  0.000322 -0.000158  0.004943 -0.000875 -0.013602
  2C   3s         0.001824  0.008532  0.040032 -0.001753  0.007929 -0.034152
  2C   2pz        0.000847  0.002793  0.003454 -0.002168  0.004085  0.005928
  2C   2px        0.001003 -0.000950  0.000113 -0.001520 -0.000243 -0.002509
  2C   2py       -0.000378 -0.004286 -0.000979 -0.003089 -0.013863  0.000656
  3C   1s        -0.000114  0.000014  0.001012 -0.021684 -0.002790  0.108329
  3C   2s         0.000651 -0.000508  0.000737  0.038140  0.004937 -0.202525
  3C   1pz        0.000194  0.000124 -0.000217 -0.002419  0.006269 -0.003866
  3C   1px        0.000070 -0.000101  0.000012 -0.006443  0.013929 -0.074959
  3C   1py       -0.000282  0.000266 -0.000120  0.023702  0.004133  0.006759
  3C   3s        -0.000643  0.000241 -0.005856  0.021603  0.014025 -0.148855
  3C   2pz        0.000119  0.000566  0.003802 -0.002449  0.011555  0.003360
  3C   2px       -0.001684  0.002199  0.000740  0.004077  0.023069  0.025930
  3C   2py        0.002268 -0.001565  0.003339 -0.002931  0.012123  0.000620
  4C   1s         0.007403  0.000466 -0.000668 -0.004619 -0.000506  0.045777
  4C   2s         0.001752 -0.000210  0.000844  0.008996  0.000763 -0.086468
  4C   1pz       -0.000143  0.000053 -0.000155 -0.003838 -0.000604  0.032409
  4C   1px        0.000026  0.000099 -0.000139  0.000812  0.001678 -0.018292
  4C   1py       -0.000369  0.000202  0.000100  0.003335 -0.000647 -0.005233
  4C   3s        -0.010448 -0.001281 -0.002906 -0.000651 -0.002560 -0.050387
  4C   2pz        0.001255  0.000262  0.001419 -0.001608  0.003911 -0.002857
  4C   2px        0.000633 -0.001251  0.000983 -0.000207 -0.006406 -0.007864
  4C   2py        0.005176  0.000435  0.000013  0.000004  0.013421  0.004640
  5N   1s        -0.000032  0.000029  0.000044 -0.010047 -0.011290  0.163901
  5N   2s        -0.000363  0.000308  0.000731  0.021586  0.020047 -0.336934
  5N   1pz       -0.000019  0.000006 -0.000102 -0.001841 -0.000628  0.037112
  5N   1px        0.000006  0.000009 -0.000176 -0.008499 -0.004893  0.041504
  5N   1py       -0.000034  0.000001 -0.000187  0.001171  0.000346  0.076392
  5N   3s         0.001713 -0.001782 -0.001454  0.012270  0.017413 -0.359296
  5N   2pz        0.000101 -0.000018  0.000080  0.001557 -0.005065  0.019527
  5N   2px       -0.000678  0.000645  0.000329  0.003950 -0.003741  0.026230
  5N   2py       -0.000438  0.000497  0.000542 -0.000477  0.013036  0.038045
  6C   1s         0.000000 -0.000001 -0.000050 -0.127091  0.029714  0.007960
  6C   2s         0.000368 -0.000320  0.000595  0.261142 -0.060936 -0.018011
  6C   1pz        0.000054  0.000047 -0.000049 -0.025273  0.115615 -0.003737
  6C   1px        0.000035 -0.000052 -0.000006 -0.069226  0.204981 -0.025535
  6C   1py        0.000038  0.000013 -0.000165  0.088635  0.040667  0.060310
  6C   3s        -0.002120  0.002185 -0.000409  0.030624 -0.023194  0.002123
  6C   2pz       -0.000923 -0.000353  0.000518  0.008539 -0.038441 -0.003197
  6C   2px       -0.001055  0.000049  0.000610  0.024432 -0.064621 -0.008252
  6C   2py        0.000878 -0.001416  0.002298 -0.039752 -0.018410 -0.012985
  7O   1s        -0.000008 -0.000001  0.000022 -0.134318 -0.155108 -0.029986
  7O   2s        -0.000110 -0.000021  0.000386  0.292093  0.336350  0.066744
  7O   1pz        0.000004 -0.000011 -0.000002 -0.018582  0.007683 -0.000373
  7O   1px       -0.000025  0.000025 -0.000083 -0.005308  0.046453  0.000465
  7O   1py       -0.000001 -0.000020 -0.000060 -0.093600 -0.091502 -0.007090
  7O   3s         0.000684  0.000227 -0.001644  0.303647  0.390276  0.078719
  7O   2pz        0.000033  0.000001  0.000280 -0.010921 -0.000786 -0.001487
  7O   2px        0.000107 -0.000203  0.000649 -0.005139  0.016700 -0.000983
  7O   2py       -0.000312  0.000098  0.000643 -0.047921 -0.064752 -0.005272
  8O   1s         0.000008  0.000002 -0.000005 -0.130897  0.142485 -0.011898
  8O   2s         0.000163  0.000036 -0.000063  0.286737 -0.311634  0.027129
  8O   1pz       -0.000024  0.000002  0.000012  0.063838 -0.056335  0.006058
  8O   1px        0.000016 -0.000010  0.000069  0.122794 -0.112882  0.008905
  8O   1py       -0.000006 -0.000022  0.000021 -0.023069  0.039243  0.006835
  8O   3s        -0.000720 -0.000382  0.000441  0.269865 -0.321643  0.020283
  8O   2pz        0.000068 -0.000014 -0.000156  0.022917 -0.018865  0.001309
  8O   2px       -0.000189 -0.000097 -0.000240  0.043097 -0.039480  0.001572
  8O   2py        0.000012  0.000262 -0.000658 -0.003162  0.021118  0.004511
  9H   1s         0.000076 -0.000422 -0.000082  0.000221 -0.000374 -0.010139
  9H   2s        -0.006046 -0.000088  0.000069 -0.000316 -0.000016 -0.002242
 10H   1s         0.000163 -0.000376 -0.000070  0.000323 -0.000196 -0.009008
 10H   2s        -0.005537 -0.000077  0.000120 -0.000426  0.001558 -0.002165
 11H   1s         0.000405 -0.000145  0.000374  0.000210 -0.000028 -0.008415
 11H   2s        -0.000173  0.005672  0.000373 -0.000242 -0.000220 -0.001463
 12H   1s         0.000447 -0.000127  0.000403  0.000295  0.000653 -0.009210
 12H   2s        -0.000068  0.005944  0.000161  0.000468  0.001878 -0.000526
 13H   1s         0.000041 -0.000449  0.000035  0.003854 -0.002266 -0.015958
 13H   2s         0.000442  0.000306 -0.005965  0.000283 -0.006399  0.000642
 14H   1s        -0.000091 -0.000347  0.000173  0.001581 -0.000468 -0.019984
 14H   2s        -0.000368  0.000627 -0.005690  0.000408  0.001091 -0.003723
 15H   1s         0.000397 -0.000081  0.000275  0.001886 -0.000463 -0.017502
 15H   2s        -0.000014 -0.000635  0.000872  0.003951 -0.011165 -0.002520
 16H   1s         0.000313  0.000111  0.000014  0.001740  0.000041 -0.020332
 16H   2s        -0.000179  0.000570 -0.000800  0.001947  0.000528 -0.000574
 17H   1s        -0.000114  0.000116  0.000250  0.004964  0.004086 -0.104877
 17H   2s         0.000138 -0.000068  0.000261 -0.000073 -0.000330 -0.001829
 18H   1s        -0.000041  0.000060  0.000095  0.067349  0.100550  0.012661
 18H   2s        -0.000130 -0.000006 -0.000612 -0.009603 -0.000111 -0.001423
 19H   1s        -0.000047  0.000111  0.000304  0.003560  0.006913 -0.106414
 19H   2s        -0.000173  0.000119  0.000274 -0.002711  0.004668 -0.003143
                     12        13        14        15        16        17   
                  -0.82699  -0.72954  -0.72418  -0.61947  -0.58508  -0.57857
                   2.00000   2.00000   2.00000   2.00000   2.00000   2.00000
                  --------  --------  --------  --------  --------  --------
  0C   1s         0.102337  0.028125 -0.115591  0.045348  0.095255  0.041791
  0C   2s        -0.193310 -0.054631  0.219331 -0.088549 -0.184245 -0.080652
  0C   1pz        0.036295 -0.071428 -0.004441  0.034253 -0.073804 -0.093137
  0C   1px       -0.002847 -0.005306 -0.000576  0.007052  0.003349  0.002336
  0C   1py       -0.034981 -0.067069 -0.016375  0.095446  0.065635 -0.028956
  0C   3s        -0.151320 -0.047286  0.213415 -0.102499 -0.233938 -0.101331
  0C   2pz        0.004097 -0.009176 -0.003423  0.005397 -0.018985 -0.025537
  0C   2px       -0.001570  0.001902  0.001169  0.002777 -0.004215 -0.001144
  0C   2py       -0.005721 -0.005614  0.000547  0.022343  0.016763 -0.010906
  1C   1s         0.097780 -0.107637 -0.054164  0.046414 -0.073665 -0.076352
  1C   2s        -0.184851  0.204906  0.102587 -0.089901  0.142727  0.148062
  1C   1pz       -0.028782 -0.049745  0.070542 -0.058687 -0.100974 -0.008290
  1C   1px       -0.004686  0.004818 -0.004502  0.008052 -0.004881 -0.009253
  1C   1py       -0.040702  0.024172 -0.040854  0.080193 -0.025498 -0.085721
  1C   3s        -0.141726  0.190877  0.098875 -0.106388  0.176242  0.190744
  1C   2pz       -0.004229 -0.004862  0.006372 -0.014944 -0.023408 -0.005907
  1C   2px        0.000185  0.000558  0.003173  0.002468  0.000119  0.002940
  1C   2py       -0.005695  0.003006 -0.003584  0.018871 -0.004723 -0.023173
  2C   1s         0.079333 -0.106101  0.081255 -0.073098  0.016063  0.074234
  2C   2s        -0.148693  0.199245 -0.155480  0.137157 -0.028968 -0.144547
  2C   1pz       -0.042794 -0.013850 -0.009329 -0.029248  0.004287  0.070198
  2C   1px        0.008198 -0.002679 -0.010402 -0.003157 -0.023738 -0.010881
  2C   1py        0.024477 -0.057435 -0.070588  0.000639 -0.119478 -0.048707
  2C   3s        -0.114314  0.202246 -0.145538  0.179849 -0.045475 -0.183068
  2C   2pz       -0.005247  0.003715  0.002202  0.004231 -0.002207  0.019567
  2C   2px        0.005373  0.006319  0.005504  0.004376 -0.006268 -0.006221
  2C   2py        0.003320 -0.004761 -0.004449  0.004123 -0.038968 -0.003760
  3C   1s         0.042432  0.040564  0.108538  0.039318  0.032679 -0.043895
  3C   2s        -0.077806 -0.077989 -0.208695 -0.081541 -0.064715  0.087648
  3C   1pz       -0.013152 -0.113246  0.045664  0.016489  0.134684  0.087641
  3C   1px        0.088284  0.024882  0.067856 -0.021051 -0.003495  0.018583
  3C   1py        0.050668 -0.035099 -0.036143 -0.172538 -0.030706  0.063499
  3C   3s        -0.087215 -0.087282 -0.235490 -0.092552 -0.086474  0.114929
  3C   2pz       -0.002940 -0.016163  0.009582  0.010544  0.041399  0.036298
  3C   2px       -0.003727 -0.000194 -0.000922 -0.008277 -0.003905  0.002007
  3C   2py        0.017257  0.000674 -0.003091 -0.023314 -0.018413  0.015563
  4C   1s         0.089039  0.128360 -0.012970 -0.071964 -0.066173  0.007465
  4C   2s        -0.167492 -0.243734  0.023637  0.137253  0.127480 -0.013609
  4C   1pz        0.034654 -0.005259  0.047200  0.031995  0.031036 -0.047402
  4C   1px        0.006148 -0.005389 -0.010489 -0.004464  0.009028  0.030991
  4C   1py        0.036393 -0.015785 -0.089267  0.002891  0.103358  0.084514
  4C   3s        -0.131856 -0.242581  0.024794  0.168193  0.166842 -0.026080
  4C   2pz        0.005764 -0.000929  0.003880  0.000722  0.009902 -0.012950
  4C   2px        0.007221 -0.001594  0.010500  0.003062  0.009719  0.007024
  4C   2py        0.001809 -0.002161 -0.012843 -0.004501  0.028707  0.021817
  5N   1s        -0.094224 -0.019537 -0.057766 -0.005333 -0.008657  0.003188
  5N   2s         0.194428  0.039558  0.119695  0.008811  0.019525 -0.007209
  5N   1pz       -0.030490 -0.037992 -0.007855  0.019077  0.071831  0.062823
  5N   1px        0.027115  0.038601  0.094631  0.081534  0.055080 -0.090709
  5N   1py       -0.040702 -0.014918 -0.049603 -0.055218 -0.054248  0.032499
  5N   3s         0.238326  0.061611  0.174115  0.026717  0.029481 -0.012047
  5N   2pz       -0.014420 -0.017085 -0.006808  0.008074  0.033547  0.030753
  5N   2px       -0.004526  0.007668  0.019950  0.028735  0.022770 -0.035417
  5N   2py       -0.025883 -0.010805 -0.028067 -0.029799 -0.029294  0.022607
  6C   1s         0.005912  0.019478  0.044529  0.100310 -0.020078  0.032592
  6C   2s        -0.012273 -0.040663 -0.094798 -0.226901  0.051407 -0.085710
  6C   1pz       -0.013215 -0.029647 -0.023936 -0.061040  0.077218 -0.030197
  6C   1px       -0.013031 -0.018018 -0.068401 -0.133616  0.009711 -0.050250
  6C   1py        0.027225  0.040422  0.116435  0.028203  0.161082 -0.207253
  6C   3s        -0.012098 -0.034550 -0.066933 -0.182157  0.050173 -0.065253
  6C   2pz       -0.001413 -0.009642 -0.003283 -0.020549  0.025499  0.005453
  6C   2px        0.004009 -0.001952 -0.003532 -0.050649  0.000171  0.001707
  6C   2py        0.004874  0.011785  0.026981  0.043193  0.026989 -0.036455
  7O   1s         0.001696 -0.012507 -0.019828 -0.042114  0.005937 -0.001607
  7O   2s        -0.003928  0.029104  0.046813  0.096701 -0.009750 -0.000316
  7O   1pz       -0.002145  0.001364  0.007685  0.108893 -0.089293  0.154773
  7O   1px        0.000673  0.013685  0.013271  0.181309 -0.206481  0.273658
  7O   1py        0.002947  0.012870  0.025270  0.121525 -0.060240  0.074304
  7O   3s        -0.005971  0.034467  0.048879  0.130757 -0.032528  0.011774
  7O   2pz       -0.000640  0.000652  0.005134  0.053165 -0.040053  0.073768
  7O   2px        0.000512  0.005953  0.007780  0.087620 -0.097271  0.130705
  7O   2py        0.000786  0.004858  0.011511  0.051124 -0.020628  0.027998
  8O   1s        -0.012123 -0.008909 -0.030868 -0.049778  0.015834 -0.033330
  8O   2s         0.028108  0.019842  0.071313  0.114938 -0.034008  0.073767
  8O   1pz        0.002880 -0.006175  0.007357 -0.017558  0.041148 -0.020610
  8O   1px        0.007992  0.002975  0.006746 -0.037573  0.016889 -0.044892
  8O   1py        0.005211  0.006151  0.028026  0.002501  0.061660 -0.068680
  8O   3s         0.029748  0.023421  0.080115  0.131511 -0.056687  0.121745
  8O   2pz        0.001546 -0.002244  0.003588 -0.010572  0.016036 -0.004988
  8O   2px        0.002631  0.000309  0.000071 -0.021137  0.003544 -0.012800
  8O   2py        0.002644  0.000221  0.009970 -0.006103  0.031094 -0.033215
  9H   1s        -0.048603 -0.018982  0.077650 -0.046051 -0.103682 -0.044642
  9H   2s        -0.005053 -0.005815  0.021958 -0.018609 -0.042134 -0.019553
 10H   1s        -0.048124 -0.018683  0.076511 -0.046235 -0.103824 -0.048436
 10H   2s        -0.005820 -0.003613  0.022288 -0.017144 -0.045390 -0.022271
 11H   1s        -0.045579  0.068613  0.035290 -0.045540  0.078626  0.083244
 11H   2s        -0.004976  0.017948  0.011320 -0.017361  0.034097  0.036321
 12H   1s        -0.045780  0.070294  0.036018 -0.047310  0.077779  0.084378
 12H   2s        -0.006075  0.018982  0.008713 -0.019478  0.034372  0.034141
 13H   1s        -0.038088  0.062140 -0.054591  0.059755 -0.021847 -0.070254
 13H   2s        -0.001605  0.013614 -0.007344  0.025526 -0.011072 -0.018939
 14H   1s        -0.033145  0.073535 -0.051941  0.066062 -0.019681 -0.091955
 14H   2s        -0.001578  0.020802 -0.012445  0.026081 -0.009284 -0.043212
 15H   1s        -0.044883 -0.083554  0.003113  0.058944  0.070944 -0.009380
 15H   2s        -0.002238 -0.017940  0.006400  0.024700  0.029250 -0.001719
 16H   1s        -0.038650 -0.087526  0.012838  0.066965  0.079755 -0.005394
 16H   2s        -0.003256 -0.021527  0.004530  0.028411  0.032279 -0.000158
 17H   1s         0.077516  0.037582  0.062140  0.012659 -0.017199 -0.056607
 17H   2s         0.008388  0.011981  0.012107  0.008340 -0.009998 -0.030218
 18H   1s         0.001288  0.012511  0.019290  0.121862 -0.114613  0.160618
 18H   2s         0.002659  0.003012  0.006802  0.047842 -0.044699  0.067461
 19H   1s         0.071407  0.016049  0.077997  0.049137  0.064464 -0.019404
 19H   2s         0.005572  0.001832  0.021447  0.019845  0.027553 -0.008249
                     18        19        20        21        22        23   
                  -0.53123  -0.49974  -0.49223  -0.46211  -0.43196  -0.42502
                   2.00000   2.00000   2.00000   2.00000   2.00000   2.00000
                  --------  --------  --------  --------  --------  --------
  0C   1s        -0.009853  0.003812 -0.016909 -0.003442  0.008151 -0.008779
  0C   2s         0.018373 -0.007277  0.033447  0.008370 -0.011678  0.016422
  0C   1pz       -0.050650  0.110526  0.085860  0.016742 -0.034651 -0.034470
  0C   1px        0.092071  0.093749  0.002157 -0.234285  0.059249  0.170366
  0C   1py        0.010559 -0.056202 -0.097518  0.014092  0.114844  0.040378
  0C   3s         0.029795 -0.009223  0.051597  0.005122 -0.047644  0.035066
  0C   2pz       -0.025154  0.043094  0.029242  0.007816 -0.013622 -0.008323
  0C   2px        0.034639  0.036085 -0.008854 -0.107182  0.019896  0.082612
  0C   2py        0.009415 -0.023264 -0.034889  0.003165  0.040213  0.018932
  1C   1s         0.016437 -0.002599  0.016100  0.002919 -0.013323  0.000253
  1C   2s        -0.032521  0.004403 -0.029564 -0.004993  0.024224  0.000532
  1C   1pz        0.061750 -0.095931 -0.036401 -0.009925 -0.000013  0.015476
  1C   1px        0.075272  0.088291 -0.043862 -0.242075 -0.059361 -0.043780
  1C   1py        0.061115 -0.095540 -0.032576  0.032294  0.046346  0.112577
  1C   3s        -0.040296  0.014492 -0.052873 -0.007391  0.066809 -0.006256
  1C   2pz        0.020623 -0.036433 -0.017338 -0.002618 -0.004817  0.005717
  1C   2px        0.034803  0.035412 -0.013135 -0.103495 -0.022730 -0.023167
  1C   2py        0.025615 -0.037036 -0.017670  0.011653  0.030295  0.044478
  2C   1s         0.005735 -0.013070 -0.028410 -0.004769  0.007751 -0.010081
  2C   2s        -0.006577  0.026841  0.052821  0.012188 -0.014017  0.018282
  2C   1pz        0.108876 -0.168793 -0.130981 -0.023878  0.065852  0.005764
  2C   1px        0.079818  0.107723 -0.096544 -0.102826 -0.097043 -0.202582
  2C   1py        0.001944 -0.041597  0.015539 -0.001994  0.001525 -0.054194
  2C   3s        -0.044166  0.028889  0.118581  0.005402 -0.037151  0.049386
  2C   2pz        0.019736 -0.065192 -0.048537 -0.010191  0.005297  0.022563
  2C   2px        0.019763  0.052106 -0.045911 -0.048180 -0.053717 -0.090364
  2C   2py       -0.002776 -0.015386  0.016551 -0.005382  0.025241 -0.016880
  3C   1s        -0.052905  0.005996  0.021053 -0.013906  0.017119  0.018477
  3C   2s         0.102567 -0.013043 -0.037694  0.022541 -0.032600 -0.037888
  3C   1pz        0.052594 -0.004743  0.052992  0.024949 -0.068974  0.102500
  3C   1px        0.111256  0.219200 -0.052721  0.178751  0.004097 -0.044593
  3C   1py       -0.180720  0.078408  0.109461  0.001191  0.014642  0.059004
  3C   3s         0.167770 -0.004855 -0.087838  0.082883 -0.076314 -0.069527
  3C   2pz        0.033664 -0.020109  0.069097  0.005804 -0.020184  0.057401
  3C   2px        0.031760  0.078422 -0.006638  0.056585 -0.005125  0.009121
  3C   2py       -0.113252  0.048583  0.027496  0.020413 -0.041297  0.048227
  4C   1s         0.037134 -0.018920  0.024966  0.004875 -0.016810  0.001495
  4C   2s        -0.069334  0.037310 -0.047416 -0.008703  0.032436 -0.002700
  4C   1pz       -0.137528  0.189488  0.053002  0.003888  0.069596 -0.028647
  4C   1px        0.140462  0.116206  0.042300 -0.061607  0.092161  0.166420
  4C   1py       -0.054736  0.020776  0.038164 -0.007915 -0.105231 -0.044227
  4C   3s        -0.132947  0.065624 -0.094015 -0.018217  0.051932 -0.012622
  4C   2pz       -0.028341  0.074057  0.028300  0.000485  0.033317 -0.030556
  4C   2px        0.056776  0.057556  0.030811 -0.024826  0.046261  0.071538
  4C   2py       -0.025041  0.009454  0.005200 -0.010420 -0.062467 -0.013988
  5N   1s         0.015890  0.003883 -0.006688 -0.015575  0.000055 -0.007504
  5N   2s        -0.032894 -0.008674  0.015361  0.035039 -0.000128  0.017848
  5N   1pz        0.184799 -0.021713  0.341297  0.062346  0.036078 -0.076823
  5N   1px       -0.154085 -0.217688  0.079006 -0.217317  0.025286  0.064133
  5N   1py       -0.110084  0.083642 -0.141991  0.034758  0.004824  0.114423
  5N   3s        -0.055155 -0.020853  0.015742  0.057512  0.003033  0.008166
  5N   2pz        0.083499 -0.001582  0.164693  0.035780  0.018394 -0.033281
  5N   2px       -0.070108 -0.111142  0.040107 -0.107937  0.005173  0.038733
  5N   2py       -0.048912  0.044936 -0.067011  0.028175  0.021340  0.082412
  6C   1s         0.035869  0.015624 -0.033528  0.040568 -0.030586  0.013125
  6C   2s        -0.075812 -0.036085  0.070029 -0.094561  0.076772 -0.048242
  6C   1pz        0.000998 -0.034624  0.035512 -0.001831 -0.308160  0.156973
  6C   1px       -0.024185  0.056074  0.000373  0.076834  0.078069  0.152792
  6C   1py        0.142158  0.041722 -0.099505  0.097801  0.013811 -0.017089
  6C   3s        -0.056085 -0.051441  0.087639 -0.109791  0.077242 -0.030511
  6C   2pz       -0.004110 -0.012546  0.008418 -0.018519 -0.139829  0.042565
  6C   2px       -0.008609  0.019038  0.004465  0.000036  0.103785  0.021729
  6C   2py        0.048106  0.034952 -0.084764  0.074210 -0.027900 -0.020191
  7O   1s        -0.016452  0.009619  0.011464 -0.001713  0.007922  0.020887
  7O   2s         0.041628 -0.022182 -0.031013  0.005039 -0.019025 -0.051043
  7O   1pz       -0.035013 -0.025066  0.047417 -0.054262 -0.215839  0.023869
  7O   1px       -0.081792  0.026191  0.030767 -0.033352  0.148935 -0.024080
  7O   1py        0.030475 -0.017947 -0.043192 -0.003856  0.019846 -0.167158
  7O   3s         0.042903 -0.039004 -0.017837 -0.000748 -0.026399 -0.060423
  7O   2pz       -0.012904 -0.010944  0.022263 -0.025722 -0.138645  0.014289
  7O   2px       -0.038723  0.020008  0.002155 -0.008060  0.083419 -0.015779
  7O   2py        0.023447 -0.010681 -0.032286 -0.002522  0.014388 -0.108481
  8O   1s        -0.017085 -0.022659  0.016838 -0.037144  0.033998 -0.052223
  8O   2s         0.041302  0.050983 -0.039568  0.082707 -0.076450  0.108576
  8O   1pz        0.001097 -0.048403  0.020406 -0.075069 -0.165931 -0.070200
  8O   1px       -0.009977 -0.019294  0.011486 -0.088191  0.247081 -0.243760
  8O   1py        0.076906  0.045443 -0.072767  0.092131 -0.034063  0.038059
  8O   3s         0.045844  0.087722 -0.051305  0.135557 -0.114854  0.233132
  8O   2pz       -0.001200 -0.023133  0.011546 -0.036689 -0.090873 -0.026775
  8O   2px       -0.008307 -0.003491  0.007742 -0.041098  0.131283 -0.111958
  8O   2py        0.038179  0.018980 -0.028835  0.039444 -0.012840  0.012557
  9H   1s         0.032113  0.075717  0.064296 -0.104494 -0.021250  0.072101
  9H   2s         0.022056  0.054374  0.051240 -0.079642 -0.011738  0.049395
 10H   1s        -0.042402 -0.008328  0.054924  0.117583 -0.074413 -0.098888
 10H   2s        -0.028287 -0.005237  0.030531  0.084237 -0.057930 -0.083269
 11H   1s        -0.068237 -0.002150  0.019393  0.112111  0.032865 -0.009140
 11H   2s        -0.038654 -0.002829  0.019819  0.083710  0.021701 -0.009693
 12H   1s        -0.015281  0.084066 -0.015362 -0.117192 -0.032048 -0.067020
 12H   2s        -0.008006  0.057555 -0.006073 -0.090095 -0.031642 -0.055752
 13H   1s        -0.060215 -0.012678  0.099511  0.059857  0.031399  0.107141
 13H   2s        -0.039634 -0.000053  0.049122  0.047948  0.007638  0.091274
 14H   1s        -0.026166  0.121285  0.043599 -0.024313 -0.081066 -0.070761
 14H   2s        -0.021582  0.078339  0.016309 -0.020070 -0.066488 -0.054734
 15H   1s        -0.123878 -0.014484 -0.027141  0.024691 -0.056003 -0.111039
 15H   2s        -0.067241 -0.008487 -0.000502  0.024971 -0.054257 -0.078539
 16H   1s        -0.049404  0.136734  0.024578 -0.025438  0.074270  0.041731
 16H   2s        -0.029312  0.082854  0.026709 -0.015887  0.052733  0.044102
 17H   1s        -0.157294 -0.038237 -0.174304 -0.079927 -0.018855  0.078258
 17H   2s        -0.086283 -0.012896 -0.104390 -0.058175 -0.010237  0.049600
 18H   1s        -0.040931  0.008532  0.022515 -0.022758  0.024692  0.000717
 18H   2s        -0.022782  0.001926  0.018944 -0.016532  0.010957 -0.002633
 19H   1s         0.052094 -0.104623  0.213897 -0.046754  0.026994 -0.050563
 19H   2s         0.031402 -0.051466  0.131983 -0.045569  0.029988 -0.024204
                     24        25        26        27        28        29   
                  -0.41218  -0.40525  -0.36399  -0.35695  -0.35478  -0.34955
                   2.00000   2.00000   2.00000   2.00000   2.00000   2.00000
                  --------  --------  --------  --------  --------  --------
  0C   1s        -0.003749  0.017546  0.008235 -0.010674  0.003273  0.017732
  0C   2s         0.007208 -0.036336 -0.017503  0.022228 -0.007730 -0.039023
  0C   1pz       -0.043754  0.034370  0.047595 -0.037881  0.287906  0.239941
  0C   1px       -0.050706  0.048151 -0.122919 -0.057321  0.055598 -0.054980
  0C   1py        0.063889 -0.169202  0.066513  0.028073  0.235752 -0.212741
  0C   3s         0.017473 -0.071465 -0.025854  0.042411 -0.011732 -0.069059
  0C   2pz       -0.028719  0.007282  0.027101 -0.031099  0.129526  0.124136
  0C   2px       -0.021056  0.028411 -0.055277 -0.033384  0.025765 -0.021265
  0C   2py        0.025800 -0.075711  0.041255 -0.008273  0.107620 -0.104345
  1C   1s        -0.002201  0.003609 -0.008867  0.019267  0.011953  0.006758
  1C   2s         0.005540 -0.011233  0.016947 -0.039645 -0.027660 -0.013057
  1C   1pz        0.024760  0.018938 -0.039384  0.033125 -0.314224 -0.226101
  1C   1px        0.160867 -0.030555 -0.119605 -0.099239  0.000695  0.024675
  1C   1py        0.027587 -0.219101 -0.003241 -0.145240 -0.114210  0.145649
  1C   3s         0.003168 -0.008386  0.036028 -0.076482 -0.041290 -0.028355
  1C   2pz       -0.004642  0.020496 -0.018269  0.002244 -0.160053 -0.091256
  1C   2px        0.072529 -0.018959 -0.066454 -0.049584  0.003154  0.005849
  1C   2py        0.012185 -0.095353 -0.011966 -0.061450 -0.050027  0.067951
  2C   1s         0.000892  0.011311  0.000860  0.017159  0.019466 -0.021819
  2C   2s        -0.003080 -0.019336 -0.003040 -0.038584 -0.034723  0.046995
  2C   1pz       -0.010826  0.048892  0.132734 -0.250115 -0.000754  0.179297
  2C   1px        0.115930 -0.050125  0.196667  0.118157 -0.046626  0.001104
  2C   1py       -0.042719  0.229214  0.034634  0.030601 -0.028825 -0.192849
  2C   3s         0.014025 -0.034171  0.009879 -0.056346 -0.098575  0.084334
  2C   2pz        0.017145  0.015367  0.080805 -0.114861 -0.001407  0.077424
  2C   2px        0.071912 -0.011313  0.117792  0.060419 -0.026421  0.015557
  2C   2py        0.002939  0.086678  0.020613  0.013027 -0.031185 -0.110703
  3C   1s         0.015618 -0.042324 -0.009352 -0.011652 -0.016972 -0.022606
  3C   2s        -0.027948  0.084040  0.024240  0.022357  0.034833  0.043051
  3C   1pz       -0.039452 -0.073136 -0.184462  0.260206 -0.003974  0.111960
  3C   1px       -0.038873 -0.118091 -0.074443 -0.106677 -0.006934 -0.086567
  3C   1py        0.054752 -0.083914 -0.054472 -0.044246  0.015693 -0.093970
  3C   3s        -0.084371  0.192280 -0.007892  0.048770  0.087101  0.113842
  3C   2pz        0.042012 -0.034037 -0.071902  0.117793 -0.013534  0.081557
  3C   2px        0.011139 -0.065105  0.008115 -0.037648 -0.027537 -0.050966
  3C   2py        0.016562  0.018310 -0.025283  0.000348  0.006779 -0.025404
  4C   1s        -0.003329 -0.004116  0.004993 -0.025858 -0.011003  0.014182
  4C   2s         0.009128  0.005418 -0.009193  0.052932  0.027384 -0.028218
  4C   1pz       -0.030657  0.016589  0.151518 -0.270852 -0.126912 -0.055040
  4C   1px       -0.185997  0.025234  0.181860  0.154444 -0.063972  0.044528
  4C   1py       -0.030869  0.144789 -0.103017  0.009951 -0.268342  0.193578
  4C   3s        -0.009731  0.030079 -0.025016  0.111048  0.025972 -0.065913
  4C   2pz       -0.008697  0.018953  0.072280 -0.129081 -0.047504 -0.020542
  4C   2px       -0.102932  0.012544  0.090856  0.083594 -0.022056  0.004700
  4C   2py       -0.021427  0.050031 -0.048845  0.002275 -0.146258  0.073980
  5N   1s         0.001968  0.017348  0.033624  0.015373 -0.002214  0.005070
  5N   2s        -0.006561 -0.040190 -0.074429 -0.032661  0.004827 -0.012141
  5N   1pz        0.115818 -0.045819 -0.032837 -0.048696 -0.005098 -0.037145
  5N   1px        0.070792  0.085270  0.118251  0.124718 -0.025677  0.075421
  5N   1py       -0.038720 -0.087318 -0.124494  0.034495 -0.029369  0.035880
  5N   3s        -0.014204 -0.066184 -0.148277 -0.085481  0.019070 -0.023041
  5N   2pz        0.042252 -0.034942 -0.021642 -0.020615 -0.014649 -0.020549
  5N   2px        0.037180  0.043740  0.074042  0.081267 -0.017586  0.053420
  5N   2py        0.001268 -0.063198 -0.085033  0.018637 -0.023443  0.026394
  6C   1s         0.003858  0.046063 -0.016451 -0.001213 -0.000546  0.001450
  6C   2s        -0.034162 -0.113953  0.033985  0.006718  0.000582  0.001290
  6C   1pz       -0.011222 -0.041427  0.079877 -0.038132  0.022009 -0.041949
  6C   1px        0.273340  0.121594  0.065246  0.009771  0.012686  0.007363
  6C   1py       -0.024089  0.001151 -0.064260  0.033017 -0.062938  0.065886
  6C   3s         0.033268 -0.088103  0.042679 -0.020159  0.005722 -0.042981
  6C   2pz       -0.053045 -0.087876  0.032604 -0.024252 -0.003855 -0.014821
  6C   2px        0.082128 -0.071960  0.013848  0.025727 -0.024290  0.033719
  6C   2py       -0.045960  0.071331 -0.074199  0.025439 -0.015967  0.041592
  7O   1s         0.024838 -0.040464  0.011198  0.009434 -0.015997  0.017198
  7O   2s        -0.059853  0.092826 -0.028388 -0.019493  0.035042 -0.036605
  7O   1pz       -0.130879 -0.118933  0.099198 -0.082294  0.011129 -0.103522
  7O   1px        0.086606 -0.100431 -0.000105  0.078534 -0.054142  0.112165
  7O   1py       -0.181169  0.152939 -0.153624 -0.023722  0.070762 -0.057980
  7O   3s        -0.071430  0.164997 -0.015842 -0.047878  0.075884 -0.084453
  7O   2pz       -0.086178 -0.066740  0.064249 -0.057878  0.007084 -0.075269
  7O   2px        0.050053 -0.045046 -0.013611  0.053288 -0.031352  0.074631
  7O   2py       -0.115595  0.090109 -0.105813 -0.011024  0.043770 -0.032458
  8O   1s        -0.054637 -0.033148 -0.015618  0.000226 -0.003292 -0.001326
  8O   2s         0.114967  0.078167  0.031433  0.000425  0.007855  0.003514
  8O   1pz       -0.229730 -0.183930 -0.000160 -0.045473 -0.006047 -0.015480
  8O   1px       -0.184927 -0.152868 -0.110655  0.063468 -0.060661  0.066556
  8O   1py        0.058311  0.051490 -0.031340  0.049796 -0.052330  0.095741
  8O   3s         0.238800  0.061941  0.082332  0.004816  0.000051  0.019004
  8O   2pz       -0.114483 -0.112015  0.006935 -0.029403 -0.002787 -0.006654
  8O   2px       -0.082795 -0.095986 -0.051910  0.040911 -0.038878  0.043576
  8O   2py        0.031314  0.024317 -0.014142  0.029191 -0.028969  0.055491
  9H   1s        -0.052569  0.068852 -0.089296 -0.043530  0.032964  0.094447
  9H   2s        -0.043102  0.067870 -0.078547 -0.050693  0.033517  0.088809
 10H   1s         0.003752  0.005629  0.060024  0.028971 -0.011352  0.148291
 10H   2s         0.003322  0.016038  0.059557  0.019659 -0.009184  0.143212
 11H   1s        -0.099068  0.070221  0.093474  0.076013  0.084383 -0.022052
 11H   2s        -0.085205  0.059285  0.074663  0.076596  0.079987 -0.016922
 12H   1s         0.064351  0.067282 -0.045043 -0.017550  0.102959 -0.015762
 12H   2s         0.052643  0.061464 -0.047753 -0.007865  0.099571 -0.008944
 13H   1s        -0.066943  0.055061 -0.144997 -0.027303  0.004539 -0.067886
 13H   2s        -0.024627  0.059731 -0.105004 -0.021541  0.021644 -0.065083
 14H   1s         0.052390 -0.062888  0.012842  0.186108 -0.045555 -0.070906
 14H   2s         0.045893 -0.053973  0.012314  0.185672 -0.030172 -0.080986
 15H   1s         0.097016  0.024762 -0.128493 -0.114252 -0.034438 -0.005396
 15H   2s         0.067678  0.013349 -0.106082 -0.116234 -0.023082 -0.007673
 16H   1s        -0.085716  0.044055  0.145550 -0.058170 -0.135591  0.001265
 16H   2s        -0.065942  0.024631  0.136926 -0.073742 -0.135804  0.010052
 17H   1s        -0.059420  0.029220  0.016080  0.074046 -0.008723  0.044278
 17H   2s        -0.040227  0.021812  0.020410  0.090794 -0.020870  0.040163
 18H   1s         0.015659 -0.090362  0.018433  0.023539 -0.034480  0.041277
 18H   2s        -0.001457 -0.054720 -0.000421  0.014159 -0.028950  0.028177
 19H   1s         0.086064  0.032901  0.060347 -0.017435  0.006626 -0.019231
 19H   2s         0.073552  0.028874  0.055605 -0.014294  0.005661 -0.014283
                     30        31        32        33        34        35   
                  -0.33396  -0.32197  -0.29314  -0.27722  -0.24384   0.01099
                   2.00000   2.00000   2.00000   2.00000   2.00000   0.00000
                  --------  --------  --------  --------  --------  --------
  0C   1s        -0.011797 -0.002346  0.000185 -0.002714  0.009444 -0.017612
  0C   2s         0.024265  0.003022 -0.007030  0.005247 -0.018765  0.018543
  0C   1pz       -0.032346 -0.013406  0.013869  0.013878  0.028461  0.033923
  0C   1px       -0.116308  0.234467  0.014060  0.024598  0.018531  0.010919
  0C   1py        0.019117 -0.039703 -0.022888  0.048913 -0.040270  0.052017
  0C   3s         0.050427  0.014666  0.029655  0.008702 -0.041048  0.277580
  0C   2pz       -0.004868 -0.005116 -0.004929  0.014730  0.016432  0.088463
  0C   2px       -0.069616  0.126814  0.011730  0.005849 -0.004770  0.049232
  0C   2py        0.009510 -0.010994 -0.000646  0.031142 -0.034082  0.107722
  1C   1s        -0.013477 -0.006638 -0.000458 -0.002286  0.006221 -0.004214
  1C   2s         0.025909  0.014451 -0.002007  0.003992 -0.009468  0.012261
  1C   1pz        0.000877 -0.010103 -0.022216 -0.002815 -0.010805  0.040189
  1C   1px        0.080605 -0.254015 -0.006447 -0.021647 -0.035791  0.000659
  1C   1py        0.170150  0.118086  0.027047 -0.025671 -0.041548 -0.033115
  1C   3s         0.073434  0.032654  0.015431  0.012888 -0.033323  0.024927
  1C   2pz       -0.010887 -0.009315 -0.030269  0.006082 -0.013090  0.049032
  1C   2px        0.047150 -0.138628 -0.001513 -0.006312 -0.016598 -0.051393
  1C   2py        0.096140  0.063279  0.025832 -0.025228 -0.051945 -0.091994
  2C   1s         0.004777  0.005966  0.003905 -0.017929 -0.012848 -0.022288
  2C   2s        -0.004827 -0.004424 -0.013728  0.035176  0.020684  0.024531
  2C   1pz       -0.033190 -0.020127 -0.005130  0.057670  0.076009  0.034158
  2C   1px        0.022321  0.162659 -0.006918  0.075371  0.121624  0.038727
  2C   1py       -0.197166 -0.124352 -0.048186  0.079651  0.061789  0.053024
  2C   3s        -0.056807 -0.070787  0.007722  0.094756  0.104666  0.281309
  2C   2pz       -0.021301 -0.022814 -0.001939  0.020113  0.089186  0.062582
  2C   2px        0.027196  0.095997  0.007458  0.002946  0.062365  0.154262
  2C   2py       -0.080042 -0.070598  0.021390  0.031691  0.061749  0.037771
  3C   1s         0.000916  0.001215  0.000102 -0.022168  0.019851 -0.001168
  3C   2s        -0.006276  0.000353  0.000050  0.013471 -0.029443 -0.001425
  3C   1pz        0.085907 -0.026919  0.043031 -0.114653 -0.011588  0.013844
  3C   1px       -0.030256  0.012872  0.010045 -0.133788 -0.002143 -0.045862
  3C   1py        0.188206  0.072616 -0.004520  0.080349 -0.199105  0.016878
  3C   3s         0.054289 -0.013295 -0.003790  0.326315 -0.197632  0.050147
  3C   2pz        0.043933 -0.049914  0.059393 -0.081604  0.033958  0.282389
  3C   2px       -0.049862 -0.016823  0.040599 -0.042971  0.062345 -0.204425
  3C   2py        0.107686  0.012060  0.012620  0.176816 -0.111415 -0.017090
  4C   1s         0.007662  0.004597 -0.003505  0.004501 -0.003426  0.032684
  4C   2s        -0.015891 -0.013383  0.008470 -0.008040  0.004193 -0.041109
  4C   1pz        0.027263  0.004429 -0.041934  0.036974 -0.026985  0.116313
  4C   1px        0.107735 -0.135494 -0.024923 -0.015602 -0.007853 -0.026939
  4C   1py        0.001958  0.046637  0.034425 -0.061775  0.023910 -0.076052
  4C   3s        -0.041530 -0.003638  0.006212 -0.032753  0.017788 -0.435968
  4C   2pz        0.017437 -0.006582 -0.004593  0.003584 -0.049394  0.260368
  4C   2px        0.067539 -0.058291 -0.031848 -0.014154 -0.008855 -0.105576
  4C   2py        0.001670  0.038345  0.041302 -0.043460  0.006879  0.015732
  5N   1s        -0.004504  0.008309  0.005041 -0.030926 -0.042181 -0.035337
  5N   2s         0.012679 -0.019054 -0.005125  0.079660  0.091255  0.056370
  5N   1pz        0.007850  0.007956 -0.035840  0.193484  0.153101 -0.014873
  5N   1px        0.036612 -0.010122 -0.005052  0.135935  0.043989 -0.034204
  5N   1py        0.045196 -0.070990 -0.034476  0.314557  0.318601 -0.034999
  5N   3s         0.009620 -0.024157 -0.041918  0.043235  0.182263  0.450894
  5N   2pz        0.003283 -0.008508 -0.019908  0.161323  0.138549 -0.050454
  5N   2px        0.025258 -0.019419  0.019595  0.155431  0.046359 -0.024761
  5N   2py        0.018606 -0.053544 -0.051063  0.255630  0.287066 -0.105655
  6C   1s        -0.001229 -0.006367 -0.000787  0.006383  0.026096  0.002548
[...]
  8O   3s        -0.455410  0.457068  1.545887  1.524180  0.492428 -1.308479
  8O   2pz        0.072482 -0.035410  0.290153  0.326149  0.188046 -0.288895
  8O   2px       -0.270591 -0.009787  0.524287  0.525954  0.116480 -0.495249
  8O   2py       -0.238638  0.841276  0.095482  0.025388  0.427396 -0.146924
  9H   1s        -0.511965  0.166754 -0.382067 -0.180037 -0.239871 -0.327803
  9H   2s        -0.532105  0.210615 -0.305349 -0.088986 -0.286747 -0.137302
 10H   1s         0.433885 -0.001767 -0.282876 -0.139796 -0.161817 -0.361858
 10H   2s         0.398449 -0.104050 -0.275746 -0.133477  0.024792 -0.272494
 11H   1s        -0.420342 -0.086160 -0.041302  0.195892  0.336303  0.299323
 11H   2s        -0.367321 -0.243036 -0.147160  0.094180  0.267036  0.131336
 12H   1s         0.504792 -0.154563  0.029523  0.335098  0.297318  0.311734
 12H   2s         0.489700 -0.158074  0.068321  0.411126  0.038609  0.249954
 13H   1s         0.510151 -0.054795  0.315744 -0.043310 -0.507746 -0.221928
 13H   2s         0.350884  0.122575  0.186272  0.009551 -0.378158 -0.061344
 14H   1s        -0.351833  0.188630  0.224404 -0.147488 -0.376278 -0.145814
 14H   2s        -0.361894  0.291631  0.168118 -0.114166 -0.217995 -0.032274
 15H   1s        -0.466796  0.211932  0.238781 -0.046040 -0.085264  0.497829
 15H   2s        -0.479662  0.193605  0.209433  0.020137 -0.209065  0.377696
 16H   1s         0.370888  0.135876  0.322982  0.094086 -0.064182  0.350673
 16H   2s         0.306125  0.262154  0.225668  0.091890 -0.075950  0.194954
 17H   1s         0.188149  0.243918 -0.180921  0.396834 -0.154076  0.094934
 17H   2s         0.025443  0.204164  0.037422  0.195317 -0.025931  0.073618
 18H   1s         0.248470  0.512230 -0.133050 -0.267371  0.154465  0.224765
 18H   2s         0.190234  0.492858 -0.241625 -0.026667 -0.037963 -0.066791
 19H   1s         0.066219  0.003383 -0.303970  0.363948 -0.144039  0.088321
 19H   2s         0.036763 -0.024364 -0.260588  0.207642 -0.124930  0.123235
                    102   
                   2.07571
                   0.00000
                  --------
  0C   1s         0.027864
  0C   2s         0.346552
  0C   1pz        0.004157
  0C   1px        0.009441
  0C   1py        0.013325
  0C   3s        -1.325607
  0C   2pz        0.242203
  0C   2px       -0.255600
  0C   2py       -0.347948
  1C   1s        -0.018076
  1C   2s        -0.158730
  1C   1pz        0.014232
  1C   1px       -0.014754
  1C   1py        0.014904
  1C   3s         1.153402
  1C   2pz        0.049681
  1C   2px        0.127364
  1C   2py        0.287624
  2C   1s         0.004620
  2C   2s        -0.055370
  2C   1pz       -0.063196
  2C   1px       -0.017588
  2C   1py       -0.091944
  2C   3s        -1.108564
  2C   2pz       -0.551020
  2C   2px        0.110280
  2C   2py        0.350396
  3C   1s         0.010496
  3C   2s         0.074512
  3C   1pz        0.044798
  3C   1px        0.137224
  3C   1py        0.033287
  3C   3s        -1.148397
  3C   2pz       -1.069287
  3C   2px       -1.572477
  3C   2py       -1.147988
  4C   1s        -0.013765
  4C   2s        -0.135397
  4C   1pz        0.057235
  4C   1px        0.012428
  4C   1py        0.046635
  4C   3s         0.770622
  4C   2pz       -0.174548
  4C   2px        0.544148
  4C   2py       -0.332753
  5N   1s        -0.003612
  5N   2s         0.087670
  5N   1pz       -0.046998
  5N   1px       -0.091116
  5N   1py        0.048935
  5N   3s         0.744473
  5N   2pz        0.466218
  5N   2px       -0.193035
  5N   2py       -0.412800
  6C   1s        -0.050376
  6C   2s        -0.440134
  6C   1pz        0.103974
  6C   1px        0.155033
  6C   1py        0.055760
  6C   3s        -0.475897
  6C   2pz        2.222388
  6C   2px        4.011376
  6C   2py        0.355733
  7O   1s        -0.003127
  7O   2s         1.161109
  7O   1pz       -0.044755
  7O   1px       -0.049967
  7O   1py       -0.181280
  7O   3s        -3.158728
  7O   2pz        0.144300
  7O   2px       -0.062203
  7O   2py        1.295684
  8O   1s         0.005852
  8O   2s        -1.736804
  8O   1pz       -0.069466
  8O   1px       -0.126750
  8O   1py        0.035574
  8O   3s         5.171754
  8O   2pz        0.685209
  8O   2px        1.392116
  8O   2py       -0.594669
  9H   1s         0.105918
  9H   2s         0.105410
 10H   1s         0.043786
 10H   2s        -0.025448
 11H   1s        -0.063126
 11H   2s         0.010096
 12H   1s        -0.095528
 12H   2s        -0.033956
 13H   1s         0.066013
 13H   2s         0.055269
 14H   1s        -0.026926
 14H   2s        -0.122723
 15H   1s        -0.011225
 15H   2s         0.369193
 16H   1s        -0.059984
 16H   2s        -0.113825
 17H   1s         0.124264
 17H   2s         0.123490
 18H   1s         0.409842
 18H   2s         0.019059
 19H   1s        -0.173268
 19H   2s        -0.158706



                    ********************************
                    * MULLIKEN POPULATION ANALYSIS *
                    ********************************

-----------------------
MULLIKEN ATOMIC CHARGES
-----------------------
   0 C :   -0.259244
   1 C :   -0.264490
   2 C :   -0.264766
   3 C :    0.039715
   4 C :   -0.267040
   5 N :   -0.705845
   6 C :    0.527870
   7 O :   -0.567835
   8 O :   -0.395085
   9 H :    0.131560
  10 H :    0.144102
  11 H :    0.142709
  12 H :    0.130876
  13 H :    0.184457
  14 H :    0.130158
  15 H :    0.170436
  16 H :    0.145164
  17 H :    0.289736
  18 H :    0.398428
  19 H :    0.289096
Sum of atomic charges:   -0.0000000

--------------------------------
MULLIKEN REDUCED ORBITAL CHARGES
--------------------------------
  0 C s       :     3.301561  s :     3.301561
      pz      :     0.951861  p :     2.957684
      px      :     1.073111
      py      :     0.932711
  1 C s       :     3.300082  s :     3.300082
      pz      :     0.917521  p :     2.964408
      px      :     1.070328
      py      :     0.976559
  2 C s       :     3.308764  s :     3.308764
      pz      :     0.949668  p :     2.956003
      px      :     1.096693
      py      :     0.909642
  3 C s       :     3.289856  s :     3.289856
      pz      :     0.963517  p :     2.670429
      px      :     0.738186
      py      :     0.968725
  4 C s       :     3.314213  s :     3.314213
      pz      :     0.931985  p :     2.952827
      px      :     1.081940
      py      :     0.938902
  5 N s       :     3.679098  s :     3.679098
      pz      :     1.287701  p :     4.026747
      px      :     1.115146
      py      :     1.623900
  6 C s       :     2.999915  s :     2.999915
      pz      :     0.804885  p :     2.472215
      px      :     0.761778
      py      :     0.905552
  7 O s       :     3.914676  s :     3.914676
      pz      :     1.675616  p :     4.653160
      px      :     1.394811
      py      :     1.582732
  8 O s       :     3.946154  s :     3.946154
      pz      :     1.383082  p :     4.448930
      px      :     1.340017
      py      :     1.725832
  9 H s       :     0.868440  s :     0.868440
 10 H s       :     0.855898  s :     0.855898
 11 H s       :     0.857291  s :     0.857291
 12 H s       :     0.869124  s :     0.869124
 13 H s       :     0.815543  s :     0.815543
 14 H s       :     0.869842  s :     0.869842
 15 H s       :     0.829564  s :     0.829564
 16 H s       :     0.854836  s :     0.854836
 17 H s       :     0.710264  s :     0.710264
 18 H s       :     0.601572  s :     0.601572
 19 H s       :     0.710904  s :     0.710904


                     *******************************
                     * LOEWDIN POPULATION ANALYSIS *
                     *******************************

----------------------
LOEWDIN ATOMIC CHARGES
----------------------
   0 C :   -0.203619
   1 C :   -0.203645
   2 C :   -0.211000
   3 C :   -0.005012
   4 C :   -0.193870
   5 N :   -0.439107
   6 C :    0.228372
   7 O :   -0.342484
   8 O :   -0.260353
   9 H :    0.102114
  10 H :    0.113410
  11 H :    0.111397
  12 H :    0.103062
  13 H :    0.132398
  14 H :    0.105844
  15 H :    0.124898
  16 H :    0.113426
  17 H :    0.207820
  18 H :    0.308541
  19 H :    0.207809

-------------------------------
LOEWDIN REDUCED ORBITAL CHARGES
-------------------------------
  0 C s       :     2.966003  s :     2.966003
      pz      :     1.061620  p :     3.237616
      px      :     1.126618
      py      :     1.049379
  1 C s       :     2.965431  s :     2.965431
      pz      :     1.041806  p :     3.238214
      px      :     1.125977
      py      :     1.070431
  2 C s       :     2.974995  s :     2.974995
      pz      :     1.063032  p :     3.236005
      px      :     1.137386
      py      :     1.035587
  3 C s       :     2.936087  s :     2.936087
      pz      :     1.071960  p :     3.068925
      px      :     0.937773
      py      :     1.059193
  4 C s       :     2.972504  s :     2.972504
      pz      :     1.044401  p :     3.221366
      px      :     1.124517
      py      :     1.052449
  5 N s       :     3.296778  s :     3.296778
      pz      :     1.326930  p :     4.142329
      px      :     1.189882
      py      :     1.625517
  6 C s       :     2.924555  s :     2.924555
      pz      :     0.868004  p :     2.847073
      px      :     0.973805
      py      :     1.005264
  7 O s       :     3.590213  s :     3.590213
      pz      :     1.687344  p :     4.752271
      px      :     1.432539
      py      :     1.632388
  8 O s       :     3.619326  s :     3.619326
      pz      :     1.418811  p :     4.641027
      px      :     1.438375
      py      :     1.783841
  9 H s       :     0.897886  s :     0.897886
 10 H s       :     0.886590  s :     0.886590
 11 H s       :     0.888603  s :     0.888603
 12 H s       :     0.896938  s :     0.896938
 13 H s       :     0.867602  s :     0.867602
 14 H s       :     0.894156  s :     0.894156
 15 H s       :     0.875102  s :     0.875102
 16 H s       :     0.886574  s :     0.886574
 17 H s       :     0.792180  s :     0.792180
 18 H s       :     0.691459  s :     0.691459
 19 H s       :     0.792191  s :     0.792191


                      *****************************
                      * MAYER POPULATION ANALYSIS *
                      *****************************

  NA   - Mulliken gross atomic population
  ZA   - Total nuclear charge
  QA   - Mulliken gross atomic charge
  VA   - Mayer's total valence
  BVA  - Mayer's bonded valence
  FA   - Mayer's free valence

  ATOM       NA         ZA         QA         VA         BVA        FA
  0 C      6.2592     6.0000    -0.2592     3.7563     3.7563    -0.0000
  1 C      6.2645     6.0000    -0.2645     3.7522     3.7522    -0.0000
  2 C      6.2648     6.0000    -0.2648     3.7020     3.7020    -0.0000
  3 C      5.9603     6.0000     0.0397     3.5685     3.5685     0.0000
  4 C      6.2670     6.0000    -0.2670     3.7176     3.7176     0.0000
  5 N      7.7058     7.0000    -0.7058     2.7183     2.7183    -0.0000
  6 C      5.4721     6.0000     0.5279     3.7376     3.7376     0.0000
  7 O      8.5678     8.0000    -0.5678     1.8195     1.8195     0.0000
  8 O      8.3951     8.0000    -0.3951     2.0531     2.0531     0.0000
  9 H      0.8684     1.0000     0.1316     0.9356     0.9356     0.0000
 10 H      0.8559     1.0000     0.1441     0.9364     0.9364    -0.0000
 11 H      0.8573     1.0000     0.1427     0.9363     0.9363    -0.0000
 12 H      0.8691     1.0000     0.1309     0.9363     0.9363    -0.0000
 13 H      0.8155     1.0000     0.1845     0.9409     0.9409     0.0000
 14 H      0.8698     1.0000     0.1302     0.9410     0.9410    -0.0000
 15 H      0.8296     1.0000     0.1704     0.9331     0.9331    -0.0000
 16 H      0.8548     1.0000     0.1452     0.9385     0.9385     0.0000
 17 H      0.7103     1.0000     0.2897     0.8768     0.8768     0.0000
 18 H      0.6016     1.0000     0.3984     0.8360     0.8360     0.0000
 19 H      0.7109     1.0000     0.2891     0.8739     0.8739     0.0000

  Mayer bond orders larger than 0.1
B(  0-C ,  1-C ) :   0.9538 B(  0-C ,  4-C ) :   0.9465 B(  0-C ,  9-H ) :   0.9570 
B(  0-C , 10-H ) :   0.9539 B(  1-C ,  2-C ) :   0.9401 B(  1-C , 11-H ) :   0.9572 
B(  1-C , 12-H ) :   0.9563 B(  2-C ,  3-C ) :   0.9291 B(  2-C , 13-H ) :   0.9246 
B(  2-C , 14-H ) :   0.9467 B(  3-C ,  4-C ) :   0.9342 B(  3-C ,  5-N ) :   0.9260 
B(  3-C ,  6-C ) :   0.8210 B(  4-C , 15-H ) :   0.9413 B(  4-C , 16-H ) :   0.9411 
B(  5-N , 17-H ) :   0.8603 B(  5-N , 19-H ) :   0.8611 B(  6-C ,  7-O ) :   0.9943 
B(  6-C ,  8-O ) :   1.9043 B(  7-O , 18-H ) :   0.7331 

-------
TIMINGS
-------

Total SCF time: 0 days 0 hours 0 min 7 sec 

Total time                  ....       7.211 sec
Sum of individual times     ....       7.149 sec  ( 99.1%)

Fock matrix formation       ....       6.426 sec  ( 89.1%)
  XC integration            ....       0.524 sec  (  8.2% of F)
    Basis function eval.    ....       0.180 sec  ( 34.4% of XC)
    Density eval.           ....       0.075 sec  ( 14.2% of XC)
    XC-Functional eval.     ....       0.032 sec  (  6.1% of XC)
    XC-Potential eval.      ....       0.135 sec  ( 25.8% of XC)
Diagonalization             ....       0.013 sec  (  0.2%)
Density matrix formation    ....       0.002 sec  (  0.0%)
Population analysis         ....       0.006 sec  (  0.1%)
Initial guess               ....       0.138 sec  (  1.9%)
Orbital Transformation      ....       0.000 sec  (  0.0%)
Orbital Orthonormalization  ....       0.000 sec  (  0.0%)
DIIS solution               ....       0.005 sec  (  0.1%)
SOSCF solution              ....       0.027 sec  (  0.4%)
Grid generation             ....       0.534 sec  (  7.4%)

-------------------------   --------------------
FINAL SINGLE POINT ENERGY      -440.069402895789
-------------------------   --------------------

MakePlots. Basename = [orca_orbitals]

---------------
PLOT GENERATION
---------------
choosing x-range =    -8.377827 ..    12.383601
choosing y-range =   -12.815667 ..    11.564543
choosing z-range =   -10.764275 ..    11.079165

GBW-File       ... orca_orbitals.gbw
PlotType       ... MO-PLOT
MO/Operator    ... 34 0
Output file    ... orcaHOMO-34.cube
Format         ... Gaussian-Cube
Resolution     ... 40 40 40
Boundaries     ...    -8.377827    12.383601 (x direction)
                     -12.815667    11.564543 (y direction)
                     -10.764275    11.079165 (z direction)
choosing x-range =    -8.377827 ..    12.383601
choosing y-range =   -12.815667 ..    11.564543
choosing z-range =   -10.764275 ..    11.079165

GBW-File       ... orca_orbitals.gbw
PlotType       ... MO-PLOT
MO/Operator    ... 33 0
Output file    ... orcaHOMO-1-33.cube
Format         ... Gaussian-Cube
Resolution     ... 40 40 40
Boundaries     ...    -8.377827    12.383601 (x direction)
                     -12.815667    11.564543 (y direction)
                     -10.764275    11.079165 (z direction)
choosing x-range =    -8.377827 ..    12.383601
choosing y-range =   -12.815667 ..    11.564543
choosing z-range =   -10.764275 ..    11.079165

GBW-File       ... orca_orbitals.gbw
PlotType       ... MO-PLOT
MO/Operator    ... 32 0
Output file    ... orcaHOMO-2-32.cube
Format         ... Gaussian-Cube
Resolution     ... 40 40 40
Boundaries     ...    -8.377827    12.383601 (x direction)
                     -12.815667    11.564543 (y direction)
                     -10.764275    11.079165 (z direction)
choosing x-range =    -8.377827 ..    12.383601
choosing y-range =   -12.815667 ..    11.564543
choosing z-range =   -10.764275 ..    11.079165

GBW-File       ... orca_orbitals.gbw
PlotType       ... MO-PLOT
MO/Operator    ... 35 0
Output file    ... orcaLUMO-35.cube
Format         ... Gaussian-Cube
Resolution     ... 40 40 40
Boundaries     ...    -8.377827    12.383601 (x direction)
                     -12.815667    11.564543 (y direction)
                     -10.764275    11.079165 (z direction)
choosing x-range =    -8.377827 ..    12.383601
choosing y-range =   -12.815667 ..    11.564543
choosing z-range =   -10.764275 ..    11.079165

GBW-File       ... orca_orbitals.gbw
PlotType       ... MO-PLOT
MO/Operator    ... 36 0
Output file    ... orcaLUMO+1-36.cube
Format         ... Gaussian-Cube
Resolution     ... 40 40 40
Boundaries     ...    -8.377827    12.383601 (x direction)
                     -12.815667    11.564543 (y direction)
                     -10.764275    11.079165 (z direction)
choosing x-range =    -8.377827 ..    12.383601
choosing y-range =   -12.815667 ..    11.564543
choosing z-range =   -10.764275 ..    11.079165

GBW-File       ... orca_orbitals.gbw
PlotType       ... MO-PLOT
MO/Operator    ... 37 0
Output file    ... orcaLUMO+2-37.cube
Format         ... Gaussian-Cube
Resolution     ... 40 40 40
Boundaries     ...    -8.377827    12.383601 (x direction)
                     -12.815667    11.564543 (y direction)
                     -10.764275    11.079165 (z direction)

                            ***************************************
                            *     ORCA property calculations      *
                            ***************************************

                                    ---------------------
                                    Active property flags
                                    ---------------------
   (+) Dipole Moment
   (+) Quadrupole Moment


------------------------------------------------------------------------------
                       ORCA ELECTRIC PROPERTIES CALCULATION
------------------------------------------------------------------------------

Dipole Moment Calculation                       ... on
Quadrupole Moment Calculation                   ... on
Polarizability Calculation                      ... off
GBWName                                         ... orca_orbitals.gbw
Electron density file                           ... orca_orbitals.scfp.tmp
The origin for moment calculation is the CENTER OF MASS  = ( 1.171793, -0.067452  0.018422)

-------------
DIPOLE MOMENT
-------------
                                X             Y             Z
Electronic contribution:     -1.24915       8.96174      -1.35136
Nuclear contribution   :      2.58285     -10.72752       1.75654
                        -----------------------------------------
Total Dipole Moment    :      1.33370      -1.76578       0.40518
                        -----------------------------------------
Magnitude (a.u.)       :      2.24965
Magnitude (Debye)      :      5.71815


------------------------
QUADRUPOLE MOMENT (A.U.)
------------------------

                XX           YY           ZZ           XY           XZ           YZ
  NUC       212.14341    670.07109    186.77847     24.01747     27.42171    -41.54871
  EL       -251.76014   -716.88979   -225.78567    -20.90180    -29.58569     42.99187
  TOT       -39.61674    -46.81870    -39.00720      3.11567     -2.16398      1.44316 (a.u.)
            -53.28587    -62.97275    -52.46602      4.19068     -2.91063      1.94110 (Buckingham)

diagonalized tensor: 
  -48.46128    -39.97792    -37.00344   (a.u.)
  -65.18207    -53.77167    -49.77089   (Buckingham)
  -19.94119      5.50887     14.43232   (traceless form in Buckingham)

    0.37194      0.58796      0.71831  
   -0.90115      0.41435      0.12745  
    0.22269      0.69471     -0.68395  

Isotropic quadrupole : -41.81421


Timings for individual modules:

Sum of individual times         ...        8.797 sec (=   0.147 min)
GTO integral calculation        ...        0.496 sec (=   0.008 min)   5.6 %
SCF iterations                  ...        7.406 sec (=   0.123 min)  84.2 %
Orbital/Density plot generation ...        0.894 sec (=   0.015 min)  10.2 %
                             ****ORCA TERMINATED NORMALLY****
TOTAL RUN TIME: 0 days 0 hours 0 minutes 8 seconds 978 msec
