
                                 *****************
                                 * O   R   C   A *
                                 *****************

           --- An Ab Initio, DFT and Semiempirical electronic structure package ---

                  #######################################################
                  #                        -***-                        #
                  #  Department of molecular theory and spectroscopy    #
                  #              Directorship: Frank Neese              #
                  # Max Planck Institute for Chemical Energy Conversion #
                  #                  D-45470 Muelheim/Ruhr              #
                  #                       Germany                       #
                  #                                                     #
                  #                  All rights reserved                #
                  #                        -***-                        #
                  #######################################################


                         Program Version 4.0.1.2 - RELEASE -


 With contributions from (in alphabetic order):
   Daniel Aravena         : Magnetic Properties
   Michael Atanasov       : Ab Initio Ligand Field Theory
   Ute Becker             : Parallelization
   Martin Brehm           : Molecular dynamics
   Dmytro Bykov           : SCF Hessian
   Vijay G. Chilkuri      : MRCI spin determinant printing
   Dipayan Datta          : RHF DLPNO-CCSD density
   Achintya Kumar Dutta   : EOM-CC, STEOM-CC
   Dmitry Ganyushin       : Spin-Orbit,Spin-Spin,Magnetic field MRCI
   Yang Guo               : DLPNO-NEVPT2, CIM, IAO-localization
   Andreas Hansen         : Spin unrestricted coupled pair/coupled cluster methods
   Lee Huntington         : MR-EOM, pCC
   Robert Izsak           : Overlap fitted RIJCOSX, COSX-SCS-MP3, EOM
   Christian Kollmar      : KDIIS, OOCD, Brueckner-CCSD(T), CCSD density
   Simone Kossmann        : Meta GGA functionals, TD-DFT gradient, OOMP2, MP2 Hessian
   Martin Krupicka        : AUTO-CI
   Dagmar Lenk            : GEPOL surface
   Dimitrios Liakos       : Extrapolation schemes; parallel MDCI
   Dimitrios Manganas     : ROCIS; embedding schemes
   Dimitrios Pantazis     : SARC Basis sets
   Taras Petrenko         : DFT Hessian,TD-DFT gradient, ASA, ECA, R-Raman, ABS, FL, XAS/XES, NRVS
   Peter Pinski           : DLPNO-MP2
   Christoph Reimann      : Effective Core Potentials
   Marius Retegan         : Local ZFS, SOC
   Christoph Riplinger    : Optimizer, TS searches, QM/MM, DLPNO-CCSD(T), (RO)-DLPNO pert. Triples
   Tobias Risthaus        : Range-separated hybrids, TD-DFT gradient, RPA, STAB
   Michael Roemelt        : Restricted open shell CIS
   Masaaki Saitow         : Open-shell DLPNO
   Barbara Sandhoefer     : DKH picture change effects
   Kantharuban Sivalingam : CASSCF convergence, NEVPT2, FIC-MRCI
   Georgi Stoychev        : AutoAux
   Boris Wezisla          : Elementary symmetry handling
   Frank Wennmohs         : Technical directorship


 We gratefully acknowledge several colleagues who have allowed us to
 interface, adapt or use parts of their codes:
   Stefan Grimme, W. Hujo, H. Kruse,             : VdW corrections, initial TS optimization,
                  C. Bannwarth                     DFT functionals, gCP, sTDA/sTD-DF
   Ed Valeev                                     : LibInt (2-el integral package), F12 methods
   Garnet Chan, S. Sharma, J. Yang, R. Olivares  : DMRG
   Ulf Ekstrom                                   : XCFun DFT Library
   Mihaly Kallay                                 : mrcc  (arbitrary order and MRCC methods)
   Andreas Klamt, Michael Diedenhofen            : otool_cosmo (COSMO solvation model)
   Jiri Pittner, Ondrej Demel                    : Mk-CCSD
   Frank Weinhold                                : gennbo (NPA and NBO analysis)
   Christopher J. Cramer and Donald G. Truhlar   : smd solvation model


 Your calculation uses the libint2 library for the computation of 2-el integrals
 For citations please refer to: http://libint.valeyev.net

 This ORCA versions uses:
   CBLAS   interface :  Fast vector & matrix operations
   LAPACKE interface :  Fast linear algebra routines
   SCALAPACK package :  Parallel linear algebra routines


Your calculation utilizes the basis: 6-31G
   H-He, Li-Ne : W. J. Hehre, R. Ditchfield and J.A. Pople, J. Chem. Phys. 56, 2257 (1972).
                 Note: He and Ne are unpublished basis sets taken from the Gaussian program.
                 Note: Li and B from J. D. Dill and J. A. Pople, J. Chem. Phys. 62, 2921 (1975).
   Na - Ar     : M. M. Francl, W. J. Pietro, W. J. Hehre, J. S. Binkley, M. S. Gordon, 
                 D. J. DeFrees and J. A. Pople, J. Chem. Phys. 77, 3654 (1982).
   K - Zn      : V. A. Rassolov, J. A. Pople, M. A. Ratner, and T. L. Windus, J. Chem. Phys. 109, 1223 (1998).

================================================================================
                                        WARNINGS
                       Please study these warnings very carefully!
================================================================================

Warning: TCutStore was < 0. Adjusted to Thresh (uncritical)

WARNING: Geometry Optimization
  ===> : Switching off AutoStart
         For restart on a previous wavefunction, please use MOREAD

INFO   : the flag for use of LIBINT has been found!

================================================================================
                                       INPUT FILE
================================================================================
NAME = orca_input.in
|  1> # Test redundant internal optimization for: agonist4.mol2
|  2> #
|  3> ! opt B3LYP
|  4> ! PrintBasis 6-31G
|  5> %output
|  6>  print[P_MOs]1
|  7>  end #output
|  8> * xyz 0 1
|  9>   C1       0.30212980   -2.16613130    1.06290921 
| 10>   C2       0.27547662   -2.38792518   -0.46260008 
| 11>   C3       0.43878840   -1.01316398   -1.13071734 
| 12>   C4       0.92656691   -0.04661048   -0.02517511 
| 13>   C5       0.40039015   -0.65104275    1.30068324 
| 14>   N6       2.40420068    0.13303885    0.02162194 
| 15>   C7       0.32204723    1.36350585   -0.22021423 
| 16>   O8       1.02569205    2.41545219    0.29836977 
| 17>   O9      -0.72911474    1.60882453   -0.75783984 
| 18>   H10      1.15765374   -2.69314412    1.51934327 
| 19>   H11     -0.60069245   -2.58096647    1.54212949 
| 20>   H12     -0.67134953   -2.86174734   -0.77697048 
| 21>   H13      1.07909921   -3.07751821   -0.77240259 
| 22>   H14     -0.53450809   -0.66106691   -1.53591945 
| 23>   H15      1.12283450   -1.04834527   -1.99196871 
| 24>   H16     -0.59718745   -0.23358503    1.54311878 
| 25>   H17      1.04789021   -0.40229294    2.15860108 
| 26>   H18      2.80603380    0.12872397   -0.91445901 
| 27>   H19      1.91975158    2.15898247    0.67561637 
| 28>   H20      2.84887910   -0.62166609    0.53991978 
| 29>  
| 30> *
| 31> %elprop
| 32> Quadrupole True
| 33> end
| 34> %pal
| 35> nprocs 1                 
| 36> endd                         ****END OF INPUT****
================================================================================

                       *****************************
                       * Geometry Optimization Run *
                       *****************************

Geometry optimization settings:
Update method            Update   .... BFGS
Choice of coordinates    CoordSys .... Redundant Internals
Initial Hessian          InHess   .... Almoef's Model

Convergence Tolerances:
Energy Change            TolE     ....  5.0000e-06 Eh
Max. Gradient            TolMAXG  ....  3.0000e-04 Eh/bohr
RMS Gradient             TolRMSG  ....  1.0000e-04 Eh/bohr
Max. Displacement        TolMAXD  ....  4.0000e-03 bohr
RMS Displacement         TolRMSD  ....  2.0000e-03 bohr

------------------------------------------------------------------------------
                        ORCA OPTIMIZATION COORDINATE SETUP
------------------------------------------------------------------------------

The optimization will be done in new redundant internal coordinates
Making redundant internal coordinates   ...  (new redundants) done
Evaluating the initial hessian          ...  (Almloef) done
Evaluating the coordinates              ...  done
Calculating the B-matrix                .... done
Calculating the G-matrix                .... done
Diagonalizing the G-matrix              .... done
The first mode is                       ....   62
The number of degrees of freedom        ....   54

    -----------------------------------------------------------------
                    Redundant Internal Coordinates


    -----------------------------------------------------------------
         Definition                    Initial Value    Approx d2E/dq
    -----------------------------------------------------------------
      1. B(C   1,C   0)                  1.5418         0.357755   
      2. B(C   2,C   1)                  1.5372         0.363808   
      3. B(C   3,C   2)                  1.5474         0.350472   
      4. B(C   4,C   3)                  1.5492         0.348100   
      5. B(C   4,C   0)                  1.5368         0.364388   
      6. B(N   5,C   3)                  1.4892         0.388623   
      7. B(C   6,C   3)                  1.5466         0.351499   
      8. B(O   7,C   6)                  1.3677         0.607343   
      9. B(O   8,C   6)                  1.2059         1.100565   
     10. B(H   9,C   0)                  1.1036         0.342515   
     11. B(H  10,C   0)                  1.1031         0.343181   
     12. B(H  11,C   1)                  1.1045         0.341479   
     13. B(H  12,C   1)                  1.1033         0.342898   
     14. B(H  13,C   2)                  1.1115         0.332733   
     15. B(H  14,C   2)                  1.1004         0.346584   
     16. B(H  15,C   4)                  1.1082         0.336755   
     17. B(H  16,C   4)                  1.1032         0.342994   
     18. B(H  17,N   5)                  1.0187         0.419107   
     19. B(H  18,O   7)                  1.0037         0.442823   
     20. B(H  19,N   5)                  1.0178         0.420459   
     21. A(C   1,C   0,C   4)          107.2188         0.359151   
     22. A(H   9,C   0,H  10)          105.9739         0.286403   
     23. A(C   1,C   0,H   9)          110.7271         0.319400   
     24. A(C   4,C   0,H   9)          110.9304         0.320360   
     25. A(C   1,C   0,H  10)          111.1984         0.319501   
     26. A(C   4,C   0,H  10)          110.8468         0.320462   
     27. A(C   0,C   1,H  12)          110.8025         0.319458   
     28. A(C   2,C   1,H  11)          110.5508         0.320118   
     29. A(H  11,C   1,H  12)          106.0426         0.286231   
     30. A(C   0,C   1,C   2)          107.4308         0.359053   
     31. A(C   0,C   1,H  11)          110.9879         0.319242   
     32. A(C   2,C   1,H  12)          111.0721         0.320335   
     33. A(H  13,C   2,H  14)          105.6128         0.285551   
     34. A(C   3,C   2,H  14)          112.5319         0.318943   
     35. A(C   1,C   2,H  14)          112.1861         0.320895   
     36. A(C   3,C   2,H  13)          109.7927         0.316831   
     37. A(C   1,C   2,H  13)          110.4085         0.318765   
     38. A(C   1,C   2,C   3)          106.3553         0.357799   
     39. A(C   4,C   3,N   5)          110.9259         0.359183   
     40. A(C   2,C   3,N   5)          114.2408         0.359599   
     41. A(N   5,C   3,C   6)          106.3678         0.359778   
     42. A(C   4,C   3,C   6)          109.3232         0.355304   
     43. A(C   2,C   3,C   6)          110.8675         0.355713   
     44. A(C   2,C   3,C   4)          105.1106         0.355127   
     45. A(C   0,C   4,H  16)          112.3418         0.320433   
     46. A(C   3,C   4,H  15)          110.2413         0.317100   
     47. A(C   0,C   4,H  15)          110.3442         0.319473   
     48. A(C   0,C   4,C   3)          105.8992         0.357483   
     49. A(H  15,C   4,H  16)          105.8580         0.285623   
     50. A(C   3,C   4,H  16)          112.2227         0.318050   
     51. A(H  17,N   5,H  19)          107.0047         0.300336   
     52. A(C   3,N   5,H  19)          111.1027         0.330042   
     53. A(C   3,N   5,H  17)          111.2229         0.329866   
     54. A(O   7,C   6,O   8)          117.4539         0.473686   
     55. A(C   3,C   6,O   8)          125.6217         0.431719   
     56. A(C   3,C   6,O   7)          116.8949         0.388572   
     57. A(C   6,O   7,H  18)          113.8438         0.358820   
     58. D(H  11,C   1,C   0,H  10)      3.5297         0.010277   
     59. D(C   2,C   1,C   0,C   4)      3.1762         0.010277   
     60. D(C   2,C   1,C   0,H  10)    124.4953         0.010277   
     61. D(C   2,C   1,C   0,H   9)   -117.9651         0.010277   
     62. D(H  12,C   1,C   0,H  10)   -114.0107         0.010277   
     63. D(H  11,C   1,C   0,H   9)    121.0693         0.010277   
     64. D(H  12,C   1,C   0,H   9)      3.5289         0.010277   
     65. D(H  11,C   1,C   0,C   4)   -117.7895         0.010277   
     66. D(H  12,C   1,C   0,C   4)    124.6702         0.010277   
     67. D(C   3,C   2,C   1,H  11)    135.6728         0.010603   
     68. D(C   3,C   2,C   1,H  12)   -106.8927         0.010603   
     69. D(C   3,C   2,C   1,C   0)     14.4324         0.010603   
     70. D(H  13,C   2,C   1,H  11)     16.6130         0.010603   
     71. D(H  13,C   2,C   1,H  12)    134.0475         0.010603   
     72. D(H  14,C   2,C   1,H  12)     16.5408         0.010603   
     73. D(H  14,C   2,C   1,H  11)   -100.8937         0.010603   
     74. D(H  14,C   2,C   1,C   0)    137.8659         0.010603   
     75. D(H  13,C   2,C   1,C   0)   -104.6274         0.010603   
     76. D(C   6,C   3,C   2,H  13)    -24.8685         0.009894   
     77. D(C   6,C   3,C   2,C   1)   -144.3306         0.009894   
     78. D(N   5,C   3,C   2,H  14)    -27.7064         0.009894   
     79. D(N   5,C   3,C   2,H  13)   -145.0272         0.009894   
     80. D(C   4,C   3,C   2,H  13)     93.1491         0.009894   
     81. D(C   4,C   3,C   2,C   1)    -26.3130         0.009894   
     82. D(N   5,C   3,C   2,C   1)     95.5107         0.009894   
     83. D(C   6,C   3,C   2,H  14)     92.4523         0.009894   
     84. D(C   4,C   3,C   2,H  14)   -149.5302         0.009894   
     85. D(H  15,C   4,C   0,C   1)     99.7819         0.010635   
     86. D(C   3,C   4,C   0,H  10)   -141.0521         0.010635   
     87. D(C   3,C   4,C   0,H   9)    101.5011         0.010635   
     88. D(C   3,C   4,C   0,C   1)    -19.5118         0.010635   
     89. D(H  16,C   4,C   3,C   6)    -89.7868         0.009771   
     90. D(H  16,C   4,C   3,N   5)     27.2006         0.009771   
     91. D(H  15,C   4,C   3,C   6)     27.9405         0.009771   
     92. D(H  15,C   4,C   3,N   5)    144.9278         0.009771   
     93. D(H  15,C   4,C   3,C   2)    -91.1161         0.009771   
     94. D(C   0,C   4,C   3,C   6)    147.3019         0.009771   
     95. D(C   0,C   4,C   3,N   5)    -95.7107         0.009771   
     96. D(C   0,C   4,C   3,C   2)     28.2453         0.009771   
     97. D(H  16,C   4,C   0,H  10)     96.1121         0.010635   
     98. D(H  16,C   4,C   0,H   9)    -21.3347         0.010635   
     99. D(H  16,C   4,C   3,C   2)    151.1567         0.009771   
    100. D(H  16,C   4,C   0,C   1)   -142.3476         0.010635   
    101. D(H  15,C   4,C   0,H  10)    -21.7584         0.010635   
    102. D(H  15,C   4,C   0,H   9)   -139.2052         0.010635   
    103. D(H  19,N   5,C   3,C   6)    154.7491         0.012913   
    104. D(H  19,N   5,C   3,C   4)     35.9635         0.012913   
    105. D(H  19,N   5,C   3,C   2)    -82.6080         0.012913   
    106. D(H  17,N   5,C   3,C   6)    -86.1632         0.012913   
    107. D(H  17,N   5,C   3,C   4)    155.0511         0.012913   
    108. D(H  17,N   5,C   3,C   2)     36.4796         0.012913   
    109. D(O   8,C   6,C   3,N   5)    152.2496         0.009328   
    110. D(O   8,C   6,C   3,C   4)    -87.9186         0.009328   
    111. D(O   8,C   6,C   3,C   2)     27.5051         0.009328   
    112. D(O   7,C   6,C   3,N   5)    -29.7888         0.009328   
    113. D(O   7,C   6,C   3,C   4)     90.0431         0.009328   
    114. D(O   7,C   6,C   3,C   2)   -154.5332         0.009328   
    115. D(H  18,O   7,C   6,O   8)   -175.9742         0.026984   
    116. D(H  18,O   7,C   6,C   3)      5.8930         0.026984   
    -----------------------------------------------------------------

Number of atoms                         .... 20
Number of degrees of freedom            .... 116

         *************************************************************
         *                GEOMETRY OPTIMIZATION CYCLE   1            *
         *************************************************************
---------------------------------
CARTESIAN COORDINATES (ANGSTROEM)
---------------------------------
  C      0.302130   -2.166131    1.062909
  C      0.275477   -2.387925   -0.462600
  C      0.438788   -1.013164   -1.130717
  C      0.926567   -0.046610   -0.025175
  C      0.400390   -0.651043    1.300683
  N      2.404201    0.133039    0.021622
  C      0.322047    1.363506   -0.220214
  O      1.025692    2.415452    0.298370
  O     -0.729115    1.608825   -0.757840
  H      1.157654   -2.693144    1.519343
  H     -0.600692   -2.580966    1.542129
  H     -0.671350   -2.861747   -0.776970
  H      1.079099   -3.077518   -0.772403
  H     -0.534508   -0.661067   -1.535919
  H      1.122834   -1.048345   -1.991969
  H     -0.597187   -0.233585    1.543119
  H      1.047890   -0.402293    2.158601
  H      2.806034    0.128724   -0.914459
  H      1.919752    2.158982    0.675616
  H      2.848879   -0.621666    0.539920

----------------------------
CARTESIAN COORDINATES (A.U.)
----------------------------
  NO LB      ZA    FRAG     MASS         X           Y           Z
   0 C     6.0000    0    12.011    0.570943   -4.093395    2.008607
   1 C     6.0000    0    12.011    0.520575   -4.512525   -0.874187
   2 C     6.0000    0    12.011    0.829190   -1.914602   -2.136746
   3 C     6.0000    0    12.011    1.750958   -0.088081   -0.047574
   4 C     6.0000    0    12.011    0.756628   -1.230292    2.457935
   5 N     7.0000    0    14.007    4.543281    0.251407    0.040860
   6 C     6.0000    0    12.011    0.608581    2.576653   -0.416145
   7 O     8.0000    0    15.999    1.938277    4.564543    0.563837
   8 O     8.0000    0    15.999   -1.377827    3.040238   -1.432110
   9 H     1.0000    0     1.008    2.187649   -5.089305    2.871143
  10 H     1.0000    0     1.008   -1.135144   -4.877320    2.914202
  11 H     1.0000    0     1.008   -1.268667   -5.407919   -1.468261
  12 H     1.0000    0     1.008    2.039202   -5.815667   -1.459629
  13 H     1.0000    0     1.008   -1.010074   -1.249235   -2.902467
  14 H     1.0000    0     1.008    2.121850   -1.981085   -3.764275
  15 H     1.0000    0     1.008   -1.128521   -0.441412    2.916072
  16 H     1.0000    0     1.008    1.980226   -0.760223    4.079165
  17 H     1.0000    0     1.008    5.302635    0.243253   -1.728077
  18 H     1.0000    0     1.008    3.627805    4.079886    1.276730
  19 H     1.0000    0     1.008    5.383601   -1.174779    1.020301

--------------------------------
INTERNAL COORDINATES (ANGSTROEM)
--------------------------------
 C      0   0   0     0.000000000000     0.00000000     0.00000000
 C      1   0   0     1.541778684211     0.00000000     0.00000000
 C      2   1   0     1.537211686015   107.43075809     0.00000000
 C      3   2   1     1.547377512275   106.35525511    14.43239193
 C      1   2   3     1.536777439991   107.21875405     3.17616954
 N      4   3   2     1.489249946753   114.24076103    95.51074382
 C      4   3   2     1.546580863056   110.86749767   215.66942415
 O      7   4   3     1.367712140769   116.89485121   205.46677926
 O      7   4   3     1.205887241188   125.62166862    27.50513867
 H      1   2   3     1.103628458987   110.72711494   242.03492640
 H      1   2   3     1.103099410809   111.19842394   124.49531092
 H      2   1   3     1.104452781257   110.98792690   239.03434603
 H      2   1   3     1.103324707140   110.80247812   121.49400546
 H      3   2   1     1.111515701237   110.40854226   255.37256674
 H      3   2   1     1.100413882327   112.18610004   137.86585285
 H      5   1   2     1.108245012199   110.34422822    99.78190460
 H      5   1   2     1.103247848793   112.34181255   217.65235833
 H      6   4   3     1.018693290187   111.22287135    36.47963587
 H      8   7   4     1.003710196059   113.84381891     5.89295814
 H      6   4   3     1.017816827638   111.10272047   277.39198523

---------------------------
INTERNAL COORDINATES (A.U.)
---------------------------
 C      0   0   0     0.000000000000     0.00000000     0.00000000
 C      1   0   0     2.913539472275     0.00000000     0.00000000
 C      2   1   0     2.904909096432   107.43075809     0.00000000
 C      3   2   1     2.924119723988   106.35525511    14.43239193
 C      1   2   3     2.904088490372   107.21875405     3.17616954
 N      4   3   2     2.814274544319   114.24076103    95.51074382
 C      4   3   2     2.922614275139   110.86749767   215.66942415
 O      7   4   3     2.584601376093   116.89485121   205.46677926
 O      7   4   3     2.278796634234   125.62166862    27.50513867
 H      1   2   3     2.085555541087   110.72711494   242.03492640
 H      1   2   3     2.084555784919   111.19842394   124.49531092
 H      2   1   3     2.087113284424   110.98792690   239.03434603
 H      2   1   3     2.084981533283   110.80247812   121.49400546
 H      3   2   1     2.100460268892   110.40854226   255.37256674
 H      3   2   1     2.079480871563   112.18610004   137.86585285
 H      5   1   2     2.094279562341   110.34422822    99.78190460
 H      5   1   2     2.084836292056   112.34181255   217.65235833
 H      6   4   3     1.925051332916   111.22287135    36.47963587
 H      8   7   4     1.896737388375   113.84381891     5.89295814
 H      6   4   3     1.923395058732   111.10272047   277.39198523

---------------------
BASIS SET INFORMATION
---------------------
There are 4 groups of distinct atoms

 Group   1 Type C   : 10s4p contracted to 3s2p pattern {631/31}
 Group   2 Type N   : 10s4p contracted to 3s2p pattern {631/31}
 Group   3 Type O   : 10s4p contracted to 3s2p pattern {631/31}
 Group   4 Type H   : 4s contracted to 2s pattern {31}

Atom   0C    basis set group =>   1
Atom   1C    basis set group =>   1
Atom   2C    basis set group =>   1
Atom   3C    basis set group =>   1
Atom   4C    basis set group =>   1
Atom   5N    basis set group =>   2
Atom   6C    basis set group =>   1
Atom   7O    basis set group =>   3
Atom   8O    basis set group =>   3
Atom   9H    basis set group =>   4
Atom  10H    basis set group =>   4
Atom  11H    basis set group =>   4
Atom  12H    basis set group =>   4
Atom  13H    basis set group =>   4
Atom  14H    basis set group =>   4
Atom  15H    basis set group =>   4
Atom  16H    basis set group =>   4
Atom  17H    basis set group =>   4
Atom  18H    basis set group =>   4
Atom  19H    basis set group =>   4

-------------------------
BASIS SET IN INPUT FORMAT
-------------------------

 # Basis set for element : H 
 NewGTO H 
 S 3 
   1      18.7311370000      0.0334945995
   2       2.8253937000      0.2347269467
   3       0.6401217000      0.8137573184
 S 1 
   1       0.1612778000      1.0000000000
  end;

 # Basis set for element : C 
 NewGTO C 
 S 6 
   1    3047.5249000000      0.0018347002
   2     457.3695100000      0.0140373012
   3     103.9486900000      0.0688426061
   4      29.2101550000      0.2321844206
   5       9.2866630000      0.4679413416
   6       3.1639270000      0.3623120322
 S 3 
   1       7.8682724000     -0.1193324086
   2       1.8812885000     -0.1608542116
   3       0.5442493000      1.1434564826
 P 3 
   1       7.8682724000      0.0689990956
   2       1.8812885000      0.3164239798
   3       0.5442493000      0.7443082524
 S 1 
   1       0.1687144000      1.0000000000
 P 1 
   1       0.1687144000      1.0000000000
  end;

 # Basis set for element : N 
 NewGTO N 
 S 6 
   1    4173.5110000000      0.0018347994
   2     627.4579000000      0.0139949958
   3     142.9021000000      0.0685869792
   4      40.2343300000      0.2322409295
   5      12.8202100000      0.4690698576
   6       4.3904370000      0.3604548906
 S 3 
   1      11.6263580000     -0.1149610229
   2       2.7162800000     -0.1691180337
   3       0.7722180000      1.1458522281
 P 3 
   1      11.6263580000      0.0675800232
   2       2.7162800000      0.3239071114
   3       0.7722180000      0.7408952549
 S 1 
   1       0.2120313000      1.0000000000
 P 1 
   1       0.2120313000      1.0000000000
  end;

 # Basis set for element : O 
 NewGTO O 
 S 6 
   1    5484.6717000000      0.0018310998
   2     825.2349500000      0.0139500985
   3     188.0469600000      0.0684450927
   4      52.9645000000      0.2327142753
   5      16.8975700000      0.4701929501
   6       5.7996353000      0.3585208619
 S 3 
   1      15.5396160000     -0.1107775038
   2       3.5999336000     -0.1480263051
   3       1.0137618000      1.1307670390
 P 3 
   1      15.5396160000      0.0708742995
   2       3.5999336000      0.3397527978
   3       1.0137618000      0.7271585953
 S 1 
   1       0.2700058000      1.0000000000
 P 1 
   1       0.2700058000      1.0000000000
  end;

------------------------------------------------------------------------------
                           ORCA GTO INTEGRAL CALCULATION
------------------------------------------------------------------------------

                         BASIS SET STATISTICS AND STARTUP INFO

 # of primitive gaussian shells          ...  170
 # of primitive gaussian functions       ...  242
 # of contracted shells                  ...   67
 # of contracted basis functions         ...  103
 Highest angular momentum                ...    1
 Maximum contraction depth               ...    6
 Integral package used                   ... LIBINT
 Integral threshhold            Thresh   ...  2.500e-11
 Primitive cut-off              TCut     ...  2.500e-12


------------------------------ INTEGRAL EVALUATION ----------------------------


 * One electron integrals 
 Pre-screening matrix                    ... done
 Shell pair data                         ... done (   0.001 sec)

-------------------------------------------------------------------------------
                                 ORCA SCF
-------------------------------------------------------------------------------

------------
SCF SETTINGS
------------
Hamiltonian:
 Density Functional     Method          .... DFT(GTOs)
 Exchange Functional    Exchange        .... B88
   X-Alpha parameter    XAlpha          ....  0.666667
   Becke's b parameter  XBeta           ....  0.004200
 Correlation Functional Correlation     .... LYP
 LDA part of GGA corr.  LDAOpt          .... VWN-5
 Gradients option       PostSCFGGA      .... off
 Hybrid DFT is turned on
   Fraction HF Exchange ScalHFX         ....  0.200000
   Scaling of DF-GGA-X  ScalDFX         ....  0.720000
   Scaling of DF-GGA-C  ScalDFC         ....  0.810000
   Scaling of DF-LDA-C  ScalLDAC        ....  1.000000
   Perturbative correction              ....  0.000000
   NL short-range parameter             ....  4.800000


General Settings:
 Integral files         IntName         .... orca_input
 Hartree-Fock type      HFTyp           .... RHF
 Total Charge           Charge          ....    0
 Multiplicity           Mult            ....    1
 Number of Electrons    NEL             ....   70
 Basis Dimension        Dim             ....  103
 Nuclear Repulsion      ENuc            ....    484.1566593403 Eh

Convergence Acceleration:
 DIIS                   CNVDIIS         .... on
   Start iteration      DIISMaxIt       ....    12
   Startup error        DIISStart       ....  0.200000
   # of expansion vecs  DIISMaxEq       ....     5
   Bias factor          DIISBfac        ....   1.050
   Max. coefficient     DIISMaxC        ....  10.000
 Newton-Raphson         CNVNR           .... off
 SOSCF                  CNVSOSCF        .... on
   Start iteration      SOSCFMaxIt      ....   150
   Startup grad/error   SOSCFStart      ....  0.003300
 Level Shifting         CNVShift        .... on
   Level shift para.    LevelShift      ....    0.2500
   Turn off err/grad.   ShiftErr        ....    0.0010
 Zerner damping         CNVZerner       .... off
 Static damping         CNVDamp         .... on
   Fraction old density DampFac         ....    0.7000
   Max. Damping (<1)    DampMax         ....    0.9800
   Min. Damping (>=0)   DampMin         ....    0.0000
   Turn off err/grad.   DampErr         ....    0.1000
 Fernandez-Rico         CNVRico         .... off

SCF Procedure:
 Maximum # iterations   MaxIter         ....   125
 SCF integral mode      SCFMode         .... Direct
   Integral package                     .... LIBINT
 Reset frequeny         DirectResetFreq ....    20
 Integral Threshold     Thresh          ....  2.500e-11 Eh
 Primitive CutOff       TCut            ....  2.500e-12 Eh

Convergence Tolerance:
 Convergence Check Mode ConvCheckMode   .... Total+1el-Energy
 Convergence forced     ConvForced      .... 0
 Energy Change          TolE            ....  1.000e-08 Eh
 1-El. energy change                    ....  1.000e-05 Eh
 Orbital Gradient       TolG            ....  1.000e-05
 Orbital Rotation angle TolX            ....  1.000e-05
 DIIS Error             TolErr          ....  5.000e-07


Diagonalization of the overlap matrix:
Smallest eigenvalue                        ... 3.418e-03
Time for diagonalization                   ...    0.001 sec
Threshold for overlap eigenvalues          ... 1.000e-08
Number of eigenvalues below threshold      ... 0
Time for construction of square roots      ...    0.000 sec
Total time needed                          ...    0.002 sec

-------------------
DFT GRID GENERATION
-------------------

General Integration Accuracy     IntAcc      ...  4.340
Radial Grid Type                 RadialGrid  ... Gauss-Chebyshev
Angular Grid (max. acc.)         AngularGrid ... Lebedev-110
Angular grid pruning method      GridPruning ... 3 (G Style)
Weight generation scheme         WeightScheme... Becke
Basis function cutoff            BFCut       ...    1.0000e-11
Integration weight cutoff        WCut        ...    1.0000e-14
Grids for H and He will be reduced by one unit

# of grid points (after initial pruning)     ...  23804 (   0.0 sec)
# of grid points (after weights+screening)   ...  21680 (   0.0 sec)
nearest neighbour list constructed           ...    0.0 sec
Grid point re-assignment to atoms done       ...    0.0 sec
Grid point division into batches done        ...    0.0 sec
Reduced shell lists constructed in    0.3 sec

Total number of grid points                  ...    21680
Total number of batches                      ...      348
Average number of points per batch           ...       62
Average number of grid points per atom       ...     1084
Average number of shells per batch           ...    49.62 (74.05%)
Average number of basis functions per batch  ...    80.01 (77.68%)
Average number of large shells per batch     ...    38.99 (78.58%)
Average number of large basis fcns per batch ...    64.03 (80.03%)
Maximum spatial batch extension              ...  20.33, 20.69, 20.95 au
Average spatial batch extension              ...   3.50,  3.50,  3.60 au

Time for grid setup =    0.399 sec

------------------------------
INITIAL GUESS: MODEL POTENTIAL
------------------------------
Loading Hartree-Fock densities                     ... done
Calculating cut-offs                               ... done
Setting up the integral package                    ... done
Initializing the effective Hamiltonian             ... done
Starting the Coulomb interaction                   ... done (   0.2 sec)
Reading the grid                                   ... done
Mapping shells                                     ... done
Starting the XC term evaluation                    ... done (   0.3 sec)
  promolecular density results
     # of electrons  =     70.004174052
     EX              =    -57.080637275
     EC              =     -2.366700895
     EX+EC           =    -59.447338171
Transforming the Hamiltonian                       ... done (   0.0 sec)
Diagonalizing the Hamiltonian                      ... done (   0.0 sec)
Back transforming the eigenvectors                 ... done (   0.0 sec)
Now organizing SCF variables                       ... done
                      ------------------
                      INITIAL GUESS DONE (   1.0 sec)
                      ------------------
--------------
SCF ITERATIONS
--------------
ITER       Energy         Delta-E        Max-DP      RMS-DP      [F,P]     Damp
               ***  Starting incremental Fock matrix formation  ***
  0   -439.7184618367   0.000000000000 0.12993398  0.00505211  0.2739258 0.7000
  1   -439.8898544288  -0.171392592078 0.07499661  0.00315539  0.1140622 0.7000
                               ***Turning on DIIS***
  2   -439.9487215837  -0.058867154955 0.07084629  0.00438777  0.0360925 0.0000
  3   -440.0470020844  -0.098280500727 0.04405257  0.00210579  0.0637714 0.0000
  4   -440.0681308983  -0.021128813890 0.01142211  0.00071471  0.0144045 0.0000
  5   -440.0696318198  -0.001500921427 0.00518284  0.00022072  0.0071416 0.0000
                      *** Initiating the SOSCF procedure ***
                           *** Shutting down DIIS ***
                      *** Re-Reading the Fockian *** 
                      *** Removing any level shift *** 
ITER      Energy       Delta-E        Grad      Rot      Max-DP    RMS-DP
  6   -440.06971451  -0.0000826926  0.000365  0.000365  0.001943  0.000069
               *** Restarting incremental Fock matrix formation ***
  7   -440.06972123  -0.0000067200  0.000131  0.000338  0.000683  0.000036
  8   -440.06972100   0.0000002302  0.000233  0.000307  0.000476  0.000018
  9   -440.06972201  -0.0000010051  0.000065  0.000163  0.000193  0.000009
 10   -440.06972195   0.0000000575  0.000095  0.000096  0.000164  0.000005
 11   -440.06972204  -0.0000000893  0.000013  0.000026  0.000041  0.000002
 12   -440.06972204   0.0000000018  0.000015  0.000013  0.000020  0.000001
                  ***Gradient check signals convergence***
              ***Rediagonalizing the Fockian in SOSCF/NRSCF***

               *****************************************************
               *                     SUCCESS                       *
               *           SCF CONVERGED AFTER  13 CYCLES          *
               *****************************************************

Setting up the final grid:

General Integration Accuracy     IntAcc      ...  4.670
Radial Grid Type                 RadialGrid  ... Gauss-Chebyshev
Angular Grid (max. acc.)         AngularGrid ... Lebedev-302
Angular grid pruning method      GridPruning ... 3 (G Style)
Weight generation scheme         WeightScheme... Becke
Basis function cutoff            BFCut       ...    1.0000e-11
Integration weight cutoff        WCut        ...    1.0000e-14
Grids for H and He will be reduced by one unit

# of grid points (after initial pruning)     ...  93242 (   0.0 sec)
# of grid points (after weights+screening)   ...  83384 (   0.2 sec)
nearest neighbour list constructed           ...    0.0 sec
Grid point re-assignment to atoms done       ...    0.0 sec
Grid point division into batches done        ...    0.2 sec
Reduced shell lists constructed in    1.4 sec

Total number of grid points                  ...    83384
Total number of batches                      ...     1314
Average number of points per batch           ...       63
Average number of grid points per atom       ...     4169
Average number of shells per batch           ...    45.57 (68.02%)
Average number of basis functions per batch  ...    73.85 (71.70%)
Average number of large shells per batch     ...    34.94 (76.66%)
Average number of large basis fcns per batch ...    57.66 (78.07%)
Maximum spatial batch extension              ...  20.40, 18.03, 18.27 au
Average spatial batch extension              ...   2.27,  2.31,  2.32 au

Final grid set up in    1.6 sec
Final integration                            ... done (   1.1 sec)
Change in XC energy                          ...     0.000319152
Integrated number of electrons               ...    70.000107525
Previous integrated no of electrons          ...    70.005082951

----------------
TOTAL SCF ENERGY
----------------

Total Energy       :         -440.06940289 Eh          -11974.89724 eV

Components:
Nuclear Repulsion  :          484.15665934 Eh           13174.57248 eV
Electronic Energy  :         -924.22606223 Eh          -25149.46973 eV
One Electron Energy:        -1558.20400032 Eh          -42400.88647 eV
Two Electron Energy:          633.97793809 Eh           17251.41674 eV

Virial components:
Potential Energy   :         -877.99279214 Eh          -23891.39849 eV
Kinetic Energy     :          437.92338925 Eh           11916.50124 eV
Virial Ratio       :            2.00490043


DFT components:
N(Alpha)           :       35.000053762410 electrons
N(Beta)            :       35.000053762410 electrons
N(Total)           :       70.000107524820 electrons
E(X)               :      -46.147693238315 Eh       
E(C)               :       -2.790249056248 Eh       
E(XC)              :      -48.937942294563 Eh       

---------------
SCF CONVERGENCE
---------------

  Last Energy change         ...   -4.0446e-09  Tolerance :   1.0000e-08
  Last MAX-Density change    ...    2.2536e-06  Tolerance :   1.0000e-07
  Last RMS-Density change    ...    1.8427e-07  Tolerance :   5.0000e-09
  Last Orbital Gradient      ...    5.3368e-07  Tolerance :   1.0000e-05
  Last Orbital Rotation      ...    8.6121e-07  Tolerance :   1.0000e-05

             **** THE GBW FILE WAS UPDATED (orca_input.gbw) ****
             **** DENSITY FILE WAS UPDATED (orca_input.scfp.tmp) ****
             **** ENERGY FILE WAS UPDATED (orca_input.en.tmp) ****
----------------
ORBITAL ENERGIES
----------------

  NO   OCC          E(Eh)            E(eV) 
   0   2.0000     -19.164642      -521.4964 
   1   2.0000     -19.123341      -520.3726 
   2   2.0000     -14.338298      -390.1649 
   3   2.0000     -10.307186      -280.4728 
   4   2.0000     -10.243883      -278.7502 
   5   2.0000     -10.196000      -277.4473 
   6   2.0000     -10.188045      -277.2308 
   7   2.0000     -10.184745      -277.1410 
   8   2.0000     -10.183789      -277.1150 
   9   2.0000      -1.094376       -29.7795 
  10   2.0000      -1.012414       -27.5492 
  11   2.0000      -0.920281       -25.0421 
  12   2.0000      -0.826986       -22.5034 
  13   2.0000      -0.729537       -19.8517 
  14   2.0000      -0.724176       -19.7058 
  15   2.0000      -0.619476       -16.8568 
  16   2.0000      -0.585074       -15.9207 
  17   2.0000      -0.578565       -15.7436 
  18   2.0000      -0.531232       -14.4556 
  19   2.0000      -0.499733       -13.5984 
  20   2.0000      -0.492226       -13.3942 
  21   2.0000      -0.462111       -12.5747 
  22   2.0000      -0.431956       -11.7541 
  23   2.0000      -0.425020       -11.5654 
  24   2.0000      -0.412180       -11.2160 
  25   2.0000      -0.405248       -11.0274 
  26   2.0000      -0.363986        -9.9046 
  27   2.0000      -0.356948        -9.7131 
  28   2.0000      -0.354774        -9.6539 
  29   2.0000      -0.349549        -9.5117 
  30   2.0000      -0.333958        -9.0874 
  31   2.0000      -0.321962        -8.7610 
  32   2.0000      -0.293134        -7.9766 
  33   2.0000      -0.277221        -7.5436 
  34   2.0000      -0.243839        -6.6352 
  35   0.0000       0.010984         0.2989 
  36   0.0000       0.048345         1.3155 
  37   0.0000       0.075797         2.0625 
  38   0.0000       0.095851         2.6082 
  39   0.0000       0.110276         3.0008 
  40   0.0000       0.117425         3.1953 
  41   0.0000       0.135362         3.6834 
  42   0.0000       0.153159         4.1677 
  43   0.0000       0.159435         4.3384 
  44   0.0000       0.166388         4.5276 
  45   0.0000       0.170946         4.6517 
  46   0.0000       0.186511         5.0752 
  47   0.0000       0.202670         5.5149 
  48   0.0000       0.221181         6.0186 
  49   0.0000       0.241940         6.5835 
  50   0.0000       0.252691         6.8761 
  51   0.0000       0.277693         7.5564 
  52   0.0000       0.300771         8.1844 
  53   0.0000       0.318712         8.6726 
  54   0.0000       0.360192         9.8013 
  55   0.0000       0.400394        10.8953 
  56   0.0000       0.531844        14.4722 
  57   0.0000       0.548557        14.9270 
  58   0.0000       0.560785        15.2597 
  59   0.0000       0.579603        15.7718 
  60   0.0000       0.593762        16.1571 
  61   0.0000       0.617661        16.8074 
  62   0.0000       0.633482        17.2379 
  63   0.0000       0.660843        17.9825 
  64   0.0000       0.663787        18.0626 
  65   0.0000       0.666495        18.1362 
  66   0.0000       0.702442        19.1144 
  67   0.0000       0.711624        19.3643 
  68   0.0000       0.727092        19.7852 
  69   0.0000       0.755791        20.5661 
  70   0.0000       0.779938        21.2232 
  71   0.0000       0.790352        21.5066 
  72   0.0000       0.801548        21.8112 
  73   0.0000       0.823908        22.4197 
  74   0.0000       0.840184        22.8626 
  75   0.0000       0.853857        23.2346 
  76   0.0000       0.880564        23.9614 
  77   0.0000       0.886875        24.1331 
  78   0.0000       0.892782        24.2938 
  79   0.0000       0.909370        24.7452 
  80   0.0000       0.923811        25.1382 
  81   0.0000       0.927693        25.2438 
  82   0.0000       0.947882        25.7932 
  83   0.0000       0.951044        25.8792 
  84   0.0000       0.963890        26.2288 
  85   0.0000       0.970237        26.4015 
  86   0.0000       0.992454        27.0060 
  87   0.0000       1.027481        27.9592 
  88   0.0000       1.045543        28.4507 
  89   0.0000       1.069255        29.0959 
  90   0.0000       1.096583        29.8395 
  91   0.0000       1.165896        31.7257 
  92   0.0000       1.193598        32.4795 
  93   0.0000       1.227524        33.4026 
  94   0.0000       1.278179        34.7810 
  95   0.0000       1.344618        36.5889 
  96   0.0000       1.411312        38.4037 
  97   0.0000       1.474786        40.1310 
  98   0.0000       1.618185        44.0331 
  99   0.0000       1.726446        46.9790 
 100   0.0000       1.902676        51.7745 
 101   0.0000       1.938302        52.7439 
 102   0.0000       2.075713        56.4830 
------------------
MOLECULAR ORBITALS
------------------
                      0         1         2         3         4         5   
                 -19.16464 -19.12334 -14.33830 -10.30719 -10.24388 -10.19600
                   2.00000   2.00000   2.00000   2.00000   2.00000   2.00000
                  --------  --------  --------  --------  --------  --------
  0C   1s         0.000012 -0.000041  0.000047  0.000082 -0.000220  0.007286
  0C   2s         0.000132 -0.000357  0.000450  0.000375 -0.000607 -0.001277
  0C   1pz        0.000033  0.000028 -0.000130  0.000063 -0.000093 -0.000077
  0C   1px        0.000013 -0.000009  0.000071  0.000143 -0.000177  0.000014
  0C   1py        0.000050 -0.000012  0.000017 -0.000029 -0.000275 -0.000338
  0C   3s        -0.000530  0.001569 -0.001122 -0.002109  0.000356  0.010814
  0C   2pz       -0.000514 -0.000961  0.000515 -0.000588  0.000142  0.000088
  0C   2px       -0.000511  0.000490 -0.000384 -0.000697  0.000936  0.000315
  0C   2py       -0.000623  0.000523 -0.000881 -0.000711 -0.000126  0.005281
  1C   1s        -0.000004  0.000027  0.000052  0.000052 -0.000148 -0.000320
  1C   2s        -0.000007  0.000171  0.000484  0.000235 -0.000389 -0.000193
  1C   1pz        0.000023 -0.000005  0.000102 -0.000025  0.000174 -0.000160
  1C   1px       -0.000064  0.000001  0.000041  0.000141 -0.000173  0.000112
  1C   1py        0.000032 -0.000065 -0.000003 -0.000016 -0.000218 -0.000025
  1C   3s         0.000674 -0.002251 -0.001624 -0.001022 -0.000821 -0.001489
  1C   2pz       -0.000766 -0.000253  0.000183  0.000319 -0.000550 -0.000346
  1C   2px        0.000423 -0.000203 -0.000510 -0.000687  0.000615 -0.000511
  1C   2py        0.000384 -0.000706 -0.000895 -0.000065 -0.000692 -0.001014
  2C   1s        -0.000033 -0.000014 -0.000059  0.000180  0.000910 -0.000904
  2C   2s        -0.000446 -0.000052 -0.000819  0.000848 -0.001679 -0.000931
  2C   1pz       -0.000177  0.000031 -0.000278 -0.000020  0.000059 -0.000144
  2C   1px        0.000020  0.000070 -0.000344 -0.000022  0.000050  0.000176
  2C   1py       -0.000303  0.000163 -0.000027  0.000266  0.000177 -0.000134
  2C   3s        -0.000863  0.003261  0.001720 -0.002529  0.014295  0.002711
  2C   2pz       -0.000520  0.002000  0.001074 -0.000518  0.005084  0.001159
  2C   2px        0.000471  0.000100 -0.000161 -0.000364  0.001751 -0.000819
  2C   2py        0.001354 -0.000434 -0.000764 -0.001740  0.004056  0.000549
  3C   1s        -0.000023 -0.000040 -0.000024 -0.001055  0.995988 -0.001240
  3C   2s        -0.000548 -0.000542 -0.001152  0.000512  0.042297 -0.000535
  3C   1pz       -0.000012 -0.000197 -0.000010 -0.000024  0.000100 -0.000256
  3C   1px        0.000327 -0.000191 -0.000160 -0.000085  0.000031  0.000116
  3C   1py       -0.000209 -0.000298  0.000190  0.000433  0.000162  0.000037
  3C   3s         0.000726  0.004081  0.006452 -0.005008 -0.058056  0.004103
  3C   2pz       -0.000355  0.003944 -0.000028  0.000170 -0.000054  0.004922
  3C   2px       -0.004856  0.003638  0.006992  0.001971  0.002933 -0.001894
  3C   2py       -0.000850  0.003838 -0.000692 -0.005791 -0.000802 -0.003433
  4C   1s         0.000043  0.000053 -0.000044  0.000170  0.001191  0.995490
  4C   2s         0.000426  0.000470 -0.000579  0.000756 -0.001531  0.038883
  4C   1pz        0.000044 -0.000151  0.000235 -0.000148 -0.000160 -0.000238
  4C   1px       -0.000014 -0.000029 -0.000172  0.000050  0.000099  0.000051
  4C   1py        0.000196 -0.000001 -0.000022  0.000402  0.000196  0.000211
  4C   3s        -0.001630 -0.002215  0.001348 -0.000933  0.013921 -0.039487
  4C   2pz        0.000929  0.001022 -0.000976  0.001015 -0.005650  0.003363
  4C   2px        0.001108 -0.001475 -0.000743 -0.000564  0.001546 -0.000416
  4C   2py       -0.001637 -0.000455 -0.000445 -0.002289  0.002695  0.001706
  5N   1s        -0.000012 -0.000003  0.995301  0.000049 -0.000053 -0.000033
  5N   2s        -0.000157 -0.000175  0.032388  0.000674 -0.001147 -0.000530
  5N   1pz       -0.000045  0.000095 -0.000853 -0.000126 -0.000030 -0.000150
  5N   1px        0.000021  0.000194 -0.000462 -0.000218  0.000340  0.000229
  5N   1py        0.000017 -0.000145 -0.001640  0.000215  0.000051  0.000059
  5N   3s         0.002182 -0.001878 -0.024565 -0.001335  0.009257  0.001148
  5N   2pz        0.000285 -0.001283  0.001357  0.000986  0.000055  0.000386
  5N   2px       -0.001025  0.000449  0.003618  0.001302 -0.004723 -0.001302
  5N   2py       -0.000958  0.001102  0.002943 -0.000864 -0.000870 -0.000172
  6C   1s         0.000013  0.000284 -0.000047 -0.995138 -0.001083  0.000003
  6C   2s        -0.000596  0.000457 -0.000660 -0.035087 -0.001414 -0.000892
  6C   1pz       -0.000031  0.000010 -0.000035  0.000110  0.000016 -0.000113
  6C   1px        0.000106  0.000232 -0.000174  0.000573 -0.000102 -0.000126
  6C   1py        0.000148 -0.000007  0.000097 -0.000304 -0.000051  0.000303
  6C   3s         0.006223  0.009513  0.000550  0.018220  0.012789  0.003998
  6C   2pz        0.004715 -0.006896  0.000267  0.002311  0.000660  0.000530
  6C   2px        0.007165 -0.013383  0.000018  0.004517  0.003238  0.001262
  6C   2py        0.006909  0.002234 -0.001986 -0.008128 -0.009266 -0.001734
  7O   1s         0.995143  0.000842 -0.000000 -0.000033 -0.000016  0.000015
  7O   2s         0.030004 -0.000658 -0.000098  0.000118 -0.000490  0.000247
  7O   1pz       -0.000119  0.000045  0.000124 -0.000081  0.000067  0.000016
  7O   1px        0.000420  0.000034  0.000036 -0.000134  0.000174  0.000019
  7O   1py       -0.002086  0.000212  0.000092 -0.000444  0.000106 -0.000082
  7O   3s        -0.021858  0.002813  0.000271 -0.000311  0.001160 -0.000904
  7O   2pz        0.001375  0.000234 -0.000678 -0.001261 -0.000526 -0.000059
  7O   2px        0.000995  0.000973 -0.000663 -0.001895 -0.001267 -0.000076
  7O   2py        0.005576 -0.001983 -0.000228  0.000256  0.000110  0.000778
  8O   1s        -0.000905  0.995178 -0.000011  0.000153 -0.000012  0.000008
  8O   2s        -0.000740  0.030651 -0.000240 -0.000097 -0.000374  0.000197
  8O   1pz       -0.000030  0.001140 -0.000029  0.000273 -0.000095  0.000040
  8O   1px       -0.000073  0.002210 -0.000008  0.000471 -0.000068  0.000010
  8O   1py        0.000110 -0.000567  0.000007 -0.000235 -0.000054 -0.000092
  8O   3s         0.003421 -0.026631  0.000788  0.002988  0.000794 -0.000407
  8O   2pz        0.000031 -0.003506  0.000177  0.001112  0.000437 -0.000259
  8O   2px        0.000469 -0.006841  0.000313  0.002371  0.000176 -0.000203
  8O   2py       -0.001869  0.001777  0.000134  0.001103  0.001326  0.000600
  9H   1s         0.000067 -0.000073  0.000153  0.000169 -0.000112 -0.000405
  9H   2s         0.000152 -0.000069 -0.000201  0.000528 -0.000691  0.000254
 10H   1s        -0.000023 -0.000003 -0.000010  0.000048  0.000024 -0.000375
 10H   2s        -0.000117  0.000251 -0.000386 -0.000164  0.000667 -0.000003
 11H   1s         0.000007  0.000083  0.000023  0.000012  0.000057  0.000009
 11H   2s         0.000107 -0.000061 -0.000252 -0.000318  0.000428 -0.000408
 12H   1s        -0.000081  0.000118  0.000112  0.000136 -0.000043  0.000083
 12H   2s        -0.000171 -0.000046  0.000168  0.000391 -0.000638  0.000078
 13H   1s        -0.000111 -0.000210 -0.000078  0.000285 -0.000595 -0.000307
 13H   2s         0.000447  0.000220  0.000380 -0.000047 -0.000344 -0.000677
 14H   1s        -0.000069  0.000047 -0.000053  0.000157 -0.000500  0.000006
 14H   2s        -0.000271  0.000433 -0.000077  0.000361 -0.000062  0.000617
 15H   1s         0.000276  0.000185 -0.000114  0.000445 -0.000522 -0.000042
 15H   2s         0.000944 -0.001134 -0.000033 -0.000844 -0.000829  0.005773
 16H   1s         0.000067  0.000103 -0.000009  0.000122 -0.000487 -0.000168
 16H   2s        -0.000310  0.000324  0.000371  0.000432 -0.000002  0.005456
 17H   1s         0.000105 -0.000202  0.000180  0.000417 -0.000266  0.000079
 17H   2s         0.000082 -0.000456  0.003591  0.000140  0.000618  0.000645
 18H   1s         0.000675 -0.000423 -0.000060  0.000359  0.000072  0.000222
 18H   2s         0.002209  0.000317  0.001174  0.000146  0.000566 -0.000260
 19H   1s        -0.000223  0.000341  0.000113 -0.000197 -0.000345 -0.000228
 19H   2s        -0.000103  0.000604  0.003763 -0.000992  0.000187  0.000291
                      6         7         8         9        10        11   
                 -10.18804 -10.18474 -10.18379  -1.09438  -1.01241  -0.92028
                   2.00000   2.00000   2.00000   2.00000   2.00000   2.00000
                  --------  --------  --------  --------  --------  --------
  0C   1s         0.995363  0.016578  0.001724 -0.000931  0.000222  0.025498
  0C   2s         0.038791  0.002202 -0.000009  0.001873  0.002443 -0.047041
  0C   1pz        0.000061 -0.000312  0.000156 -0.000378 -0.000355  0.009684
  0C   1px        0.000129 -0.000026  0.000060  0.000051 -0.000217 -0.004164
  0C   1py        0.000055 -0.000036  0.000010  0.001131  0.000264 -0.017589
  0C   3s        -0.040259 -0.011577 -0.002471  0.000043 -0.012714 -0.027842
  0C   2pz        0.002595  0.005156  0.000924  0.001333  0.000646  0.004308
  0C   2px       -0.000701 -0.000165 -0.000090  0.000396 -0.002899 -0.002006
  0C   2py       -0.002822  0.000156 -0.000886  0.000227 -0.009377 -0.002549
  1C   1s         0.016513 -0.993612 -0.059448 -0.000942 -0.000504  0.024559
  1C   2s        -0.000940 -0.038608 -0.003949  0.001658  0.000301 -0.044415
  1C   1pz       -0.000302 -0.000002  0.000172 -0.000041  0.000329 -0.005095
  1C   1px        0.000007 -0.000071 -0.000029  0.000218 -0.000504 -0.004659
  1C   1py       -0.000027  0.000031 -0.000326  0.001137  0.001114 -0.019050
  1C   3s         0.010821  0.039715  0.013576  0.001329  0.012688 -0.034861
  1C   2pz        0.004919  0.001910 -0.001464  0.001764 -0.005128 -0.001255
  1C   2px        0.000424  0.000588  0.000573 -0.000570  0.003611 -0.002936
  1C   2py        0.001443  0.003045  0.005267  0.000280  0.003999 -0.006294
  2C   1s        -0.000732 -0.059329  0.993742 -0.004546 -0.002716  0.043364
  2C   2s        -0.000190 -0.000751  0.038918  0.009621  0.002275 -0.084620
  2C   1pz       -0.000122  0.000215  0.000140  0.003015 -0.000126 -0.029535
  2C   1px        0.000058 -0.000009  0.000060  0.000086 -0.001835 -0.017597
  2C   1py        0.000146 -0.000322  0.000158  0.004943  0.000875 -0.013604
  2C   3s        -0.001824 -0.008534 -0.040031 -0.001754 -0.007930 -0.034149
  2C   2pz       -0.000847 -0.002793 -0.003454 -0.002169 -0.004086  0.005928
  2C   2px       -0.001003  0.000950 -0.000114 -0.001520  0.000243 -0.002509
  2C   2py        0.000378  0.004286  0.000979 -0.003089  0.013863  0.000655
  3C   1s         0.000114 -0.000014 -0.001012 -0.021685  0.002791  0.108331
  3C   2s        -0.000651  0.000508 -0.000737  0.038142 -0.004938 -0.202527
  3C   1pz       -0.000194 -0.000124  0.000217 -0.002419 -0.006270 -0.003865
  3C   1px       -0.000070  0.000101 -0.000012 -0.006444 -0.013930 -0.074960
  3C   1py        0.000282 -0.000266  0.000121  0.023705 -0.004134  0.006754
  3C   3s         0.000643 -0.000240  0.005856  0.021605 -0.014026 -0.148858
  3C   2pz       -0.000119 -0.000566 -0.003802 -0.002449 -0.011555  0.003360
  3C   2px        0.001684 -0.002199 -0.000740  0.004077 -0.023070  0.025930
  3C   2py       -0.002268  0.001565 -0.003339 -0.002931 -0.012123  0.000620
  4C   1s        -0.007401 -0.000466  0.000668 -0.004619  0.000506  0.045776
  4C   2s        -0.001752  0.000210 -0.000844  0.008996 -0.000764 -0.086465
  4C   1pz        0.000143 -0.000053  0.000155 -0.003838  0.000604  0.032408
  4C   1px       -0.000026 -0.000099  0.000139  0.000812 -0.001679 -0.018291
  4C   1py        0.000369 -0.000202 -0.000100  0.003335  0.000647 -0.005235
  4C   3s         0.010448  0.001281  0.002906 -0.000651  0.002560 -0.050384
  4C   2pz       -0.001255 -0.000262 -0.001419 -0.001608 -0.003911 -0.002858
  4C   2px       -0.000633  0.001251 -0.000983 -0.000207  0.006406 -0.007864
  4C   2py       -0.005176 -0.000435 -0.000013  0.000004 -0.013421  0.004639
  5N   1s         0.000032 -0.000029 -0.000044 -0.010048  0.011291  0.163902
  5N   2s         0.000363 -0.000308 -0.000731  0.021587 -0.020049 -0.336934
  5N   1pz        0.000019 -0.000006  0.000102 -0.001841  0.000628  0.037113
  5N   1px       -0.000006 -0.000009  0.000176 -0.008499  0.004894  0.041506
  5N   1py        0.000034 -0.000001  0.000187  0.001171 -0.000347  0.076390
  5N   3s        -0.001713  0.001782  0.001454  0.012270 -0.017414 -0.359298
  5N   2pz       -0.000101  0.000018 -0.000080  0.001557  0.005065  0.019527
  5N   2px        0.000678 -0.000645 -0.000329  0.003950  0.003741  0.026231
  5N   2py        0.000438 -0.000497 -0.000542 -0.000477 -0.013037  0.038045
  6C   1s        -0.000001  0.000001  0.000050 -0.127093 -0.029713  0.007960
  6C   2s        -0.000368  0.000320 -0.000595  0.261146  0.060935 -0.018011
  6C   1pz       -0.000054 -0.000047  0.000049 -0.025272 -0.115616 -0.003737
  6C   1px       -0.000035  0.000052  0.000006 -0.069225 -0.204983 -0.025537
  6C   1py       -0.000038 -0.000013  0.000165  0.088633 -0.040669  0.060314
  6C   3s         0.002120 -0.002185  0.000409  0.030629  0.023194  0.002120
  6C   2pz        0.000923  0.000353 -0.000518  0.008540  0.038441 -0.003198
  6C   2px        0.001055 -0.000049 -0.000610  0.024433  0.064621 -0.008253
  6C   2py       -0.000878  0.001416 -0.002298 -0.039753  0.018410 -0.012983
  7O   1s         0.000008  0.000001 -0.000022 -0.134316  0.155108 -0.029987
  7O   2s         0.000110  0.000021 -0.000386  0.292090 -0.336350  0.066748
  7O   1pz       -0.000004  0.000011  0.000002 -0.018584 -0.007682 -0.000373
  7O   1px        0.000025 -0.000025  0.000083 -0.005311 -0.046451  0.000464
  7O   1py        0.000001  0.000020  0.000060 -0.093603  0.091506 -0.007092
  7O   3s        -0.000684 -0.000227  0.001644  0.303643 -0.390276  0.078724
  7O   2pz       -0.000033 -0.000001 -0.000280 -0.010922  0.000787 -0.001487
  7O   2px       -0.000107  0.000203 -0.000649 -0.005140 -0.016699 -0.000983
  7O   2py        0.000312 -0.000098 -0.000643 -0.047923  0.064754 -0.005274
  8O   1s        -0.000008 -0.000002  0.000005 -0.130896 -0.142484 -0.011898
  8O   2s        -0.000163 -0.000036  0.000063  0.286736  0.311633  0.027130
  8O   1pz        0.000024 -0.000002 -0.000012  0.063840  0.056337  0.006058
  8O   1px       -0.000016  0.000010 -0.000069  0.122798  0.112886  0.008906
  8O   1py        0.000006  0.000022 -0.000021 -0.023070 -0.039246  0.006836
  8O   3s         0.000720  0.000382 -0.000441  0.269862  0.321638  0.020284
  8O   2pz       -0.000068  0.000014  0.000156  0.022919  0.018866  0.001309
  8O   2px        0.000189  0.000097  0.000240  0.043100  0.039482  0.001572
  8O   2py       -0.000012 -0.000262  0.000658 -0.003163 -0.021119  0.004511
  9H   1s        -0.000076  0.000422  0.000082  0.000221  0.000374 -0.010138
  9H   2s         0.006046  0.000088 -0.000069 -0.000316  0.000016 -0.002242
 10H   1s        -0.000163  0.000376  0.000070  0.000323  0.000196 -0.009007
 10H   2s         0.005536  0.000077 -0.000120 -0.000426 -0.001558 -0.002165
 11H   1s        -0.000405  0.000145 -0.000374  0.000210  0.000028 -0.008415
 11H   2s         0.000173 -0.005672 -0.000373 -0.000242  0.000220 -0.001463
 12H   1s        -0.000447  0.000127 -0.000403  0.000295 -0.000653 -0.009209
 12H   2s         0.000068 -0.005944 -0.000161  0.000468 -0.001878 -0.000526
 13H   1s        -0.000041  0.000449 -0.000035  0.003854  0.002266 -0.015958
 13H   2s        -0.000442 -0.000306  0.005965  0.000283  0.006399  0.000642
 14H   1s         0.000091  0.000347 -0.000173  0.001581  0.000468 -0.019983
 14H   2s         0.000368 -0.000627  0.005690  0.000408 -0.001091 -0.003722
 15H   1s        -0.000397  0.000081 -0.000275  0.001886  0.000463 -0.017502
 15H   2s         0.000014  0.000635 -0.000872  0.003951  0.011165 -0.002521
 16H   1s        -0.000313 -0.000111 -0.000014  0.001740 -0.000041 -0.020332
 16H   2s         0.000179 -0.000570  0.000800  0.001947 -0.000528 -0.000574
 17H   1s         0.000114 -0.000116 -0.000250  0.004965 -0.004086 -0.104878
 17H   2s        -0.000138  0.000068 -0.000261 -0.000073  0.000330 -0.001829
 18H   1s         0.000041 -0.000060 -0.000095  0.067347 -0.100549  0.012662
 18H   2s         0.000130  0.000006  0.000612 -0.009604  0.000113 -0.001423
 19H   1s         0.000047 -0.000111 -0.000304  0.003561 -0.006914 -0.106413
 19H   2s         0.000173 -0.000119 -0.000274 -0.002711 -0.004668 -0.003141
                     12        13        14        15        16        17   
                  -0.82699  -0.72954  -0.72418  -0.61948  -0.58507  -0.57857
                   2.00000   2.00000   2.00000   2.00000   2.00000   2.00000
                  --------  --------  --------  --------  --------  --------
  0C   1s         0.102334  0.028084 -0.115601  0.045354  0.095245  0.041816
  0C   2s        -0.193306 -0.054554  0.219349 -0.088561 -0.184226 -0.080700
  0C   1pz        0.036293 -0.071429 -0.004417  0.034251 -0.073782 -0.093154
  0C   1px       -0.002846 -0.005305 -0.000575  0.007054  0.003351  0.002338
  0C   1py       -0.034982 -0.067071 -0.016348  0.095446  0.065639 -0.028939
  0C   3s        -0.151316 -0.047211  0.213428 -0.102513 -0.233914 -0.101393
  0C   2pz        0.004097 -0.009176 -0.003419  0.005395 -0.018979 -0.025541
  0C   2px       -0.001570  0.001903  0.001168  0.002777 -0.004215 -0.001146
  0C   2py       -0.005720 -0.005612  0.000549  0.022341  0.016764 -0.010901
  1C   1s         0.097777 -0.107654 -0.054130  0.046418 -0.073645 -0.076373
  1C   2s        -0.184846  0.204939  0.102522 -0.089908  0.142688  0.148103
  1C   1pz       -0.028780 -0.049720  0.070555 -0.058687 -0.100970 -0.008320
  1C   1px       -0.004685  0.004815 -0.004504  0.008053 -0.004879 -0.009257
  1C   1py       -0.040701  0.024159 -0.040856  0.080193 -0.025475 -0.085726
  1C   3s        -0.141721  0.190907  0.098812 -0.106397  0.176192  0.190796
  1C   2pz       -0.004228 -0.004859  0.006372 -0.014942 -0.023405 -0.005915
  1C   2px        0.000185  0.000559  0.003173  0.002468  0.000120  0.002941
  1C   2py       -0.005694  0.003004 -0.003584  0.018870 -0.004717 -0.023173
  2C   1s         0.079334 -0.106078  0.081284 -0.073100  0.016042  0.074237
  2C   2s        -0.148696  0.199201 -0.155535  0.137163 -0.028928 -0.144554
  2C   1pz       -0.042795 -0.013853 -0.009323 -0.029244  0.004270  0.070195
  2C   1px        0.008198 -0.002683 -0.010400 -0.003155 -0.023734 -0.010888
  2C   1py        0.024473 -0.057454 -0.070571  0.000646 -0.119464 -0.048744
  2C   3s        -0.114315  0.202205 -0.145593  0.179853 -0.045427 -0.183079
  2C   2pz       -0.005246  0.003716  0.002201  0.004232 -0.002212  0.019565
  2C   2px        0.005373  0.006321  0.005502  0.004376 -0.006267 -0.006224
  2C   2py        0.003319 -0.004762 -0.004447  0.004123 -0.038967 -0.003771
  3C   1s         0.042437  0.040599  0.108524  0.039312  0.032687 -0.043883
  3C   2s        -0.077816 -0.078057 -0.208668 -0.081529 -0.064732  0.087624
  3C   1pz       -0.013152 -0.113233  0.045704  0.016492  0.134662  0.087677
  3C   1px        0.088287  0.024905  0.067849 -0.021050 -0.003498  0.018580
  3C   1py        0.050666 -0.035117 -0.036148 -0.172548 -0.030726  0.063494
  3C   3s        -0.087226 -0.087359 -0.235462 -0.092539 -0.086497  0.114899
  3C   2pz       -0.002940 -0.016160  0.009588  0.010544  0.041389  0.036308
  3C   2px       -0.003726 -0.000194 -0.000922 -0.008275 -0.003905  0.002006
  3C   2py        0.017257  0.000671 -0.003096 -0.023321 -0.018420  0.015561
  4C   1s         0.089042  0.128354 -0.013020 -0.071967 -0.066172  0.007448
  4C   2s        -0.167497 -0.243722  0.023731  0.137258  0.127477 -0.013577
  4C   1pz        0.034656 -0.005244  0.047201  0.031989  0.031042 -0.047391
  4C   1px        0.006148 -0.005391 -0.010487 -0.004463  0.009022  0.030992
  4C   1py        0.036389 -0.015819 -0.089261  0.002899  0.103339  0.084540
  4C   3s        -0.131860 -0.242569  0.024889  0.168198  0.166843 -0.026035
  4C   2pz        0.005764 -0.000928  0.003879  0.000720  0.009903 -0.012948
  4C   2px        0.007221 -0.001591  0.010501  0.003062  0.009719  0.007027
  4C   2py        0.001808 -0.002167 -0.012842 -0.004500  0.028702  0.021824
  5N   1s        -0.094224 -0.019556 -0.057759 -0.005332 -0.008658  0.003184
  5N   2s         0.194427  0.039597  0.119681  0.008808  0.019526 -0.007202
  5N   1pz       -0.030491 -0.037996 -0.007841  0.019079  0.071818  0.062844
  5N   1px        0.027117  0.038631  0.094617  0.081526  0.055098 -0.090689
  5N   1py       -0.040701 -0.014934 -0.049599 -0.055217 -0.054257  0.032484
  5N   3s         0.238328  0.061667  0.174096  0.026712  0.029483 -0.012037
  5N   2pz       -0.014420 -0.017087 -0.006801  0.008076  0.033541  0.030764
  5N   2px       -0.004526  0.007674  0.019948  0.028733  0.022776 -0.035409
  5N   2py       -0.025883 -0.010814 -0.028064 -0.029798 -0.029300  0.022599
  6C   1s         0.005913  0.019494  0.044526  0.100307 -0.020087  0.032586
  6C   2s        -0.012276 -0.040697 -0.094791 -0.226892  0.051430 -0.085694
  6C   1pz       -0.013217 -0.029656 -0.023928 -0.061037  0.077229 -0.030177
  6C   1px       -0.013034 -0.018042 -0.068402 -0.133616  0.009726 -0.050250
  6C   1py        0.027231  0.040463  0.116432  0.028213  0.161138 -0.207209
  6C   3s        -0.012101 -0.034576 -0.066932 -0.182154  0.050189 -0.065235
  6C   2pz       -0.001413 -0.009644 -0.003280 -0.020548  0.025499  0.005460
  6C   2px        0.004009 -0.001954 -0.003534 -0.050649  0.000171  0.001705
  6C   2py        0.004875  0.011795  0.026980  0.043194  0.026997 -0.036447
  7O   1s         0.001695 -0.012515 -0.019827 -0.042115  0.005939 -0.001607
  7O   2s        -0.003925  0.029122  0.046808  0.096704 -0.009753 -0.000315
  7O   1pz       -0.002146  0.001366  0.007685  0.108889 -0.089335  0.154754
  7O   1px        0.000673  0.013691  0.013267  0.181300 -0.206560  0.273607
  7O   1py        0.002947  0.012879  0.025267  0.121523 -0.060266  0.074293
  7O   3s        -0.005968  0.034487  0.048874  0.130759 -0.032534  0.011768
  7O   2pz       -0.000641  0.000654  0.005134  0.053164 -0.040074  0.073761
  7O   2px        0.000512  0.005956  0.007778  0.087616 -0.097311  0.130682
  7O   2py        0.000786  0.004862  0.011509  0.051124 -0.020639  0.027997
  8O   1s        -0.012125 -0.008920 -0.030867 -0.049776  0.015844 -0.033326
  8O   2s         0.028112  0.019866  0.071311  0.114935 -0.034029  0.073759
  8O   1pz        0.002880 -0.006173  0.007360 -0.017554  0.041156 -0.020596
  8O   1px        0.007993  0.002978  0.006747 -0.037568  0.016899 -0.044886
  8O   1py        0.005212  0.006160  0.028025  0.002501  0.061680 -0.068666
  8O   3s         0.029752  0.023449  0.080111  0.131504 -0.056718  0.121727
  8O   2pz        0.001546 -0.002244  0.003590 -0.010570  0.016039 -0.004983
  8O   2px        0.002632  0.000309  0.000071 -0.021135  0.003547 -0.012799
  8O   2py        0.002644  0.000225  0.009969 -0.006103  0.031104 -0.033208
  9H   1s        -0.048601 -0.018955  0.077654 -0.046055 -0.103669 -0.044668
  9H   2s        -0.005052 -0.005808  0.021957 -0.018609 -0.042125 -0.019562
 10H   1s        -0.048123 -0.018657  0.076517 -0.046239 -0.103812 -0.048463
 10H   2s        -0.005820 -0.003606  0.022289 -0.017146 -0.045384 -0.022283
 11H   1s        -0.045578  0.068625  0.035268 -0.045543  0.078604  0.083267
 11H   2s        -0.004977  0.017953  0.011315 -0.017361  0.034088  0.036331
 12H   1s        -0.045778  0.070304  0.035994 -0.047311  0.077756  0.084398
 12H   2s        -0.006074  0.018983  0.008705 -0.019477  0.034361  0.034148
 13H   1s        -0.038089  0.062125 -0.054608  0.059757 -0.021828 -0.070259
 13H   2s        -0.001605  0.013614 -0.007348  0.025527 -0.011067 -0.018943
 14H   1s        -0.033145  0.073519 -0.051961  0.066062 -0.019656 -0.091957
 14H   2s        -0.001577  0.020797 -0.012450  0.026080 -0.009272 -0.043212
 15H   1s        -0.044885 -0.083553  0.003146  0.058946  0.070943 -0.009361
 15H   2s        -0.002239 -0.017940  0.006408  0.024702  0.029250 -0.001711
 16H   1s        -0.038650 -0.087520  0.012872  0.066965  0.079751 -0.005372
 16H   2s        -0.003255 -0.021525  0.004538  0.028410  0.032276 -0.000149
 17H   1s         0.077516  0.037603  0.062127  0.012655 -0.017188 -0.056611
 17H   2s         0.008388  0.011985  0.012103  0.008338 -0.009992 -0.030220
 18H   1s         0.001289  0.012518  0.019288  0.121858 -0.114660  0.160590
 18H   2s         0.002659  0.003014  0.006802  0.047839 -0.044717  0.067449
 19H   1s         0.071407  0.016073  0.077992  0.049134  0.064468 -0.019383
 19H   2s         0.005571  0.001838  0.021445  0.019842  0.027555 -0.008240
                     18        19        20        21        22        23   
                  -0.53123  -0.49973  -0.49223  -0.46211  -0.43196  -0.42502
                   2.00000   2.00000   2.00000   2.00000   2.00000   2.00000
                  --------  --------  --------  --------  --------  --------
  0C   1s         0.009855 -0.003814  0.016910  0.003441  0.008153  0.008779
  0C   2s        -0.018376  0.007282 -0.033448 -0.008370 -0.011683 -0.016422
  0C   1pz        0.050645 -0.110512 -0.085875 -0.016738 -0.034652  0.034472
  0C   1px       -0.092066 -0.093732 -0.002175  0.234293  0.059233 -0.170369
  0C   1py       -0.010554  0.056184  0.097521 -0.014093  0.114837 -0.040392
  0C   3s        -0.029798  0.009232 -0.051600 -0.005122 -0.047651 -0.035064
  0C   2pz        0.025152 -0.043088 -0.029248 -0.007816 -0.013626  0.008325
  0C   2px       -0.034637 -0.036078  0.008847  0.107186  0.019890 -0.082612
  0C   2py       -0.009413  0.023257  0.034890 -0.003164  0.040210 -0.018938
  1C   1s        -0.016437  0.002602 -0.016101 -0.002920 -0.013323 -0.000252
  1C   2s         0.032522 -0.004409  0.029566  0.004994  0.024224 -0.000533
  1C   1pz       -0.061749  0.095926  0.036413  0.009921 -0.000009 -0.015475
  1C   1px       -0.075268 -0.088280  0.043842  0.242083 -0.059339  0.043796
  1C   1py       -0.061108  0.095532  0.032585 -0.032296  0.046326 -0.112585
  1C   3s         0.040298 -0.014502  0.052873  0.007391  0.066812  0.006252
  1C   2pz       -0.020623  0.036429  0.017343  0.002617 -0.004817 -0.005716
  1C   2px       -0.034801 -0.035406  0.013127  0.103499 -0.022721  0.023174
  1C   2py       -0.025613  0.037032  0.017673 -0.011652  0.030287 -0.044482
  2C   1s        -0.005736  0.013067  0.028412  0.004768  0.007753  0.010080
  2C   2s         0.006579 -0.026835 -0.052827 -0.012188 -0.014021 -0.018281
  2C   1pz       -0.108874  0.168781  0.131007  0.023873  0.065859 -0.005767
  2C   1px       -0.079821 -0.107727  0.096526  0.102842 -0.097015  0.202600
  2C   1py       -0.001948  0.041601 -0.015530  0.001989  0.001540  0.054197
  2C   3s         0.044171 -0.028876 -0.118586 -0.005403 -0.037157 -0.049380
  2C   2pz       -0.019734  0.065186  0.048547  0.010190  0.005299 -0.022557
  2C   2px       -0.019764 -0.052110  0.045903  0.048189 -0.053700  0.090376
  2C   2py        0.002775  0.015390 -0.016546  0.005379  0.025250  0.016880
  3C   1s         0.052909 -0.005995 -0.021056  0.013904  0.017116 -0.018478
  3C   2s        -0.102575  0.013042  0.037700 -0.022538 -0.032594  0.037890
  3C   1pz       -0.052593  0.004752 -0.052990 -0.024948 -0.068991 -0.102502
  3C   1px       -0.111270 -0.219217  0.052693 -0.178738  0.004080  0.044582
  3C   1py        0.180718 -0.078399 -0.109474 -0.001191  0.014636 -0.059000
  3C   3s        -0.167775  0.004852  0.087843 -0.082871 -0.076302  0.069525
  3C   2pz       -0.033662  0.020120 -0.069090 -0.005805 -0.020185 -0.057396
  3C   2px       -0.031767 -0.078423  0.006629 -0.056579 -0.005134 -0.009122
  3C   2py        0.113257 -0.048583 -0.027508 -0.020405 -0.041297 -0.048222
  4C   1s        -0.037136  0.018925 -0.024964 -0.004876 -0.016811 -0.001493
  4C   2s         0.069337 -0.037320  0.047412  0.008704  0.032439  0.002696
  4C   1pz        0.137526 -0.189489 -0.053029 -0.003882  0.069594  0.028644
  4C   1px       -0.140465 -0.116192 -0.042319  0.061623  0.092128 -0.166447
  4C   1py        0.054735 -0.020770 -0.038161  0.007913 -0.105219  0.044241
  4C   3s         0.132951 -0.065643  0.094002  0.018218  0.051933  0.012615
  4C   2pz        0.028340 -0.074055 -0.028309 -0.000482  0.033320  0.030555
  4C   2px       -0.056778 -0.057549 -0.030822  0.024834  0.046244 -0.071554
  4C   2py        0.025040 -0.009452 -0.005199  0.010419 -0.062463  0.013995
  5N   1s        -0.015890 -0.003882  0.006688  0.015577  0.000057  0.007504
  5N   2s         0.032894  0.008673 -0.015361 -0.035042 -0.000133 -0.017850
  5N   1pz       -0.184796  0.021762 -0.341293 -0.062352  0.036096  0.076827
  5N   1px        0.154105  0.217710 -0.078983  0.217305  0.025304 -0.064123
  5N   1py        0.110075 -0.083669  0.141982 -0.034756  0.004801 -0.114432
  5N   3s         0.055157  0.020844 -0.015740 -0.057520  0.003026 -0.008169
  5N   2pz       -0.083499  0.001604 -0.164693 -0.035783  0.018400  0.033281
  5N   2px        0.070119  0.111157 -0.040093  0.107934  0.005181 -0.038729
  5N   2py        0.048906 -0.044949  0.067006 -0.028175  0.021327 -0.082418
  6C   1s        -0.035868 -0.015629  0.033525 -0.040564 -0.030584 -0.013123
  6C   2s         0.075811  0.036095 -0.070021  0.094551  0.076766  0.048234
  6C   1pz       -0.000995  0.034635 -0.035509  0.001837 -0.308169 -0.156940
  6C   1px        0.024183 -0.056076 -0.000383 -0.076823  0.078089 -0.152772
  6C   1py       -0.142156 -0.041738  0.099498 -0.097794  0.013808  0.017082
  6C   3s         0.056084  0.051456 -0.087631  0.109781  0.077244  0.030511
  6C   2pz        0.004111  0.012551 -0.008417  0.018520 -0.139840 -0.042556
  6C   2px        0.008607 -0.019038 -0.004468 -0.000037  0.103784 -0.021733
  6C   2py       -0.048103 -0.034965  0.084757 -0.074201 -0.027898  0.020188
  7O   1s         0.016451 -0.009618 -0.011465  0.001713  0.007919 -0.020886
  7O   2s        -0.041625  0.022180  0.031015 -0.005037 -0.019020  0.051043
  7O   1pz        0.035013  0.025077 -0.047414  0.054262 -0.215864 -0.023860
  7O   1px        0.081788 -0.026191 -0.030768  0.033346  0.148938  0.024069
  7O   1py       -0.030472  0.017942  0.043194  0.003856  0.019855  0.167145
  7O   3s        -0.042900  0.039003  0.017843  0.000748 -0.026390  0.060423
  7O   2pz        0.012905  0.010950 -0.022263  0.025724 -0.138661 -0.014284
  7O   2px        0.038722 -0.020010 -0.002157  0.008058  0.083423  0.015774
  7O   2py       -0.023445  0.010678  0.032286  0.002523  0.014394  0.108473
  8O   1s         0.017086  0.022662 -0.016834  0.037140  0.033996  0.052217
  8O   2s        -0.041304 -0.050990  0.039560 -0.082699 -0.076446 -0.108564
  8O   1pz       -0.001096  0.048412 -0.020399  0.075064 -0.165967  0.070195
  8O   1px        0.009974  0.019292 -0.011478  0.088175  0.247078  0.243722
  8O   1py       -0.076906 -0.045454  0.072759 -0.092120 -0.034057 -0.038054
  8O   3s        -0.045847 -0.087730  0.051290 -0.135540 -0.114850 -0.233106
  8O   2pz        0.001200  0.023138 -0.011544  0.036688 -0.090895  0.026772
  8O   2px        0.008305  0.003490 -0.007739  0.041090  0.131281  0.111939
  8O   2py       -0.038179 -0.018985  0.028832 -0.039440 -0.012835 -0.012555
  9H   1s        -0.032114 -0.075698 -0.064308  0.104498 -0.021258 -0.072097
  9H   2s        -0.022056 -0.054360 -0.051247  0.079643 -0.011742 -0.049390
 10H   1s         0.042395  0.008330 -0.054920 -0.117583 -0.074404  0.098891
 10H   2s         0.028281  0.005238 -0.030526 -0.084235 -0.057920  0.083270
 11H   1s         0.068233  0.002145 -0.019386 -0.112111  0.032858  0.009132
 11H   2s         0.038650  0.002827 -0.019813 -0.083707  0.021695  0.009687
 12H   1s         0.015281 -0.084061  0.015349  0.117196 -0.032030  0.067030
 12H   2s         0.008005 -0.057549  0.006063  0.090096 -0.031626  0.055759
 13H   1s         0.060214  0.012685 -0.099507 -0.059864  0.031383 -0.107147
 13H   2s         0.039632  0.000055 -0.049120 -0.047950  0.007630 -0.091273
 14H   1s         0.026165 -0.121278 -0.043619  0.024322 -0.081060  0.070769
 14H   2s         0.021581 -0.078334 -0.016323  0.020076 -0.066483  0.054741
 15H   1s         0.123879  0.014474  0.027146 -0.024698 -0.055980  0.111055
 15H   2s         0.067240  0.008482  0.000505 -0.024976 -0.054241  0.078550
 16H   1s         0.049404 -0.136733 -0.024598  0.025446  0.074260 -0.041743
 16H   2s         0.029311 -0.082851 -0.026721  0.015892  0.052723 -0.044110
 17H   1s         0.157298  0.038214  0.174308  0.079927 -0.018865 -0.078259
 17H   2s         0.086284  0.012883  0.104390  0.058175 -0.010243 -0.049601
 18H   1s         0.040929 -0.008530 -0.022515  0.022755  0.024686 -0.000721
 18H   2s         0.022780 -0.001925 -0.018943  0.016529  0.010953  0.002630
 19H   1s        -0.052084  0.104659 -0.213888  0.046747  0.027015  0.050572
 19H   2s        -0.031396  0.051489 -0.131979  0.045565  0.030002  0.024210
                     24        25        26        27        28        29   
                  -0.41218  -0.40525  -0.36399  -0.35695  -0.35477  -0.34955
                   2.00000   2.00000   2.00000   2.00000   2.00000   2.00000
                  --------  --------  --------  --------  --------  --------
  0C   1s        -0.003750 -0.017545  0.008235 -0.010670  0.003270  0.017735
  0C   2s         0.007209  0.036335 -0.017502  0.022220 -0.007724 -0.039030
  0C   1pz       -0.043753 -0.034377  0.047592 -0.037839  0.287873  0.239992
  0C   1px       -0.050696 -0.048151 -0.122921 -0.057349  0.055605 -0.054968
  0C   1py        0.063877  0.169215  0.066523  0.028010  0.235783 -0.212716
  0C   3s         0.017479  0.071462 -0.025853  0.042397 -0.011717 -0.069069
  0C   2pz       -0.028718 -0.007285  0.027101 -0.031076  0.129508  0.124163
  0C   2px       -0.021050 -0.028412 -0.055278 -0.033396  0.025767 -0.021261
  0C   2py        0.025796  0.075715  0.041258 -0.008304  0.107636 -0.104331
  1C   1s        -0.002200 -0.003609 -0.008868  0.019267  0.011953  0.006755
  1C   2s         0.005538  0.011234  0.016949 -0.039646 -0.027661 -0.013052
  1C   1pz        0.024761 -0.018934 -0.039384  0.033086 -0.314195 -0.226153
  1C   1px        0.160868  0.030559 -0.119609 -0.099233  0.000685  0.024702
  1C   1py        0.027589  0.219104 -0.003232 -0.145195 -0.114232  0.145666
  1C   3s         0.003163  0.008389  0.036033 -0.076487 -0.041285 -0.028342
  1C   2pz       -0.004639 -0.020494 -0.018269  0.002229 -0.160041 -0.091279
  1C   2px        0.072529  0.018962 -0.066457 -0.049583  0.003148  0.005865
  1C   2py        0.012187  0.095355 -0.011963 -0.061431 -0.050037  0.067959
  2C   1s         0.000891 -0.011311  0.000860  0.017153  0.019469 -0.021822
  2C   2s        -0.003078  0.019336 -0.003041 -0.038572 -0.034731  0.047001
  2C   1pz       -0.010830 -0.048890  0.132733 -0.250074 -0.000794  0.179358
  2C   1px        0.115927  0.050126  0.196668  0.118167 -0.046619  0.001071
  2C   1py       -0.042721 -0.229213  0.034626  0.030550 -0.028805 -0.192857
  2C   3s         0.014029  0.034165  0.009877 -0.056319 -0.098590  0.084336
  2C   2pz        0.017146 -0.015368  0.080806 -0.114840 -0.001425  0.077454
  2C   2px        0.071913  0.011315  0.117795  0.060428 -0.026418  0.015540
  2C   2py        0.002935 -0.086675  0.020609  0.012998 -0.031171 -0.110705
  3C   1s         0.015616  0.042325 -0.009351 -0.011657 -0.016968 -0.022605
  3C   2s        -0.027945 -0.084043  0.024238  0.022367  0.034828  0.043050
  3C   1pz       -0.039438  0.073128 -0.184465  0.260230 -0.003973  0.111894
  3C   1px       -0.038877  0.118088 -0.074434 -0.106696 -0.006926 -0.086541
  3C   1py        0.054752  0.083915 -0.054460 -0.044264  0.015709 -0.093960
  3C   3s        -0.084356 -0.192283 -0.007895  0.048795  0.087084  0.113836
  3C   2pz        0.042017  0.034033 -0.071903  0.117810 -0.013539  0.081526
  3C   2px        0.011137  0.065099  0.008115 -0.037657 -0.027535 -0.050955
  3C   2py        0.016573 -0.018311 -0.025274  0.000347  0.006785 -0.025404
  4C   1s        -0.003327  0.004114  0.004993 -0.025854 -0.011007  0.014187
  4C   2s         0.009124 -0.005414 -0.009193  0.052924  0.027392 -0.028228
  4C   1pz       -0.030667 -0.016588  0.151525 -0.270856 -0.126918 -0.054989
  4C   1px       -0.185997 -0.025240  0.181856  0.154464 -0.063970  0.044490
  4C   1py       -0.030857 -0.144798 -0.103025  0.010011 -0.268366  0.193537
  4C   3s        -0.009738 -0.030072 -0.025015  0.111029  0.025985 -0.065933
[...]
  4C   1px        0.024178  0.180795 -0.066208 -0.172764 -0.061652 -0.007009
  4C   1py        0.165180  0.111727  0.147862 -0.127048 -0.084431  0.122248
  4C   3s        -1.574848  0.196096  3.832924 -1.331533 -5.068980 -4.179787
  4C   2pz       -0.184410 -1.008231 -0.847987  0.440837  1.310288  1.080567
  4C   2px       -0.127784 -1.745223  0.028191 -0.272820 -0.260964  0.118734
  4C   2py       -0.294968 -0.174932 -0.597469 -0.221120  0.052461  1.096057
  5N   1s         0.006587 -0.001186  0.012305  0.041349  0.021129 -0.005483
  5N   2s         0.396432 -0.071834  1.125506  1.267567  0.234939 -0.037556
  5N   1pz        0.006257 -0.092259 -0.038474 -0.014462  0.001822 -0.000279
  5N   1px        0.045953  0.024453 -0.172576 -0.087003  0.127986 -0.042236
  5N   1py        0.097077 -0.020337  0.050531  0.093226  0.023062  0.001360
  5N   3s        -1.122735  0.167632 -2.380915 -4.024747 -1.404229  0.313642
  5N   2pz       -0.069522  0.241060  0.119533  0.000503 -0.041539 -0.207486
  5N   2px       -0.019418 -0.091484  0.599645  1.454413  0.383801 -0.043804
  5N   2py       -0.181324  0.041099  0.002761  0.205001  0.072671 -0.077998
  6C   1s        -0.044881 -0.001061 -0.017682  0.021068  0.020591 -0.002209
  6C   2s        -1.055709 -0.051083 -0.198177 -0.108223  0.145952 -0.012923
  6C   1pz       -0.039494  0.012881  0.003477 -0.007171 -0.023222  0.001163
  6C   1px        0.004340  0.006478 -0.063616 -0.091639  0.017138 -0.014074
  6C   1py        0.372842  0.026836  0.026918 -0.004456  0.277037 -0.097780
  6C   3s         2.317870 -0.144206  2.015711 -2.770628  0.009368 -0.279965
  6C   2pz        0.389696 -0.281812  0.049489  0.055304 -0.318150 -0.140336
  6C   2px        0.114271  0.072218 -0.350243 -0.181671  0.041565 -0.135232
  6C   2py       -3.689981 -0.196442 -0.744478 -0.401465  2.087541 -0.582726
  7O   1s         0.007830  0.002164 -0.007379  0.011523 -0.011276  0.003614
  7O   2s        -0.110081 -0.092469  0.507869 -0.885925  1.075430 -0.402475
  7O   1pz        0.019200 -0.042807 -0.010591 -0.023004  0.014818  0.021878
  7O   1px        0.463161 -0.006680  0.208780  0.060556 -0.129058  0.043183
  7O   1py       -0.245577 -0.013737 -0.020908  0.149617 -0.096580  0.052618
  7O   3s         0.525050  0.203467 -1.044474  1.953460 -2.393090  0.904762
  7O   2pz       -0.061809  0.122665 -0.011952  0.090946 -0.057305  0.008518
  7O   2px       -1.710619 -0.017323 -0.618957 -0.571642  0.688985 -0.234942
  7O   2py        0.738601  0.007653  0.344318 -0.693869  0.526643 -0.259415
  8O   1s        -0.002153  0.002831 -0.016754  0.011476 -0.009022  0.002458
  8O   2s        -0.092471 -0.100854  0.586184 -0.737849  0.591760 -0.172948
  8O   1pz        0.004038  0.021721  0.004830 -0.000036 -0.020637 -0.054075
  8O   1px        0.039449 -0.019227  0.115910 -0.088645  0.091137 -0.026528
  8O   1py       -0.143981 -0.024381  0.035044  0.000887 -0.004903  0.001099
  8O   3s         0.260826  0.224567 -1.286558  1.692108 -1.215636  0.346915
  8O   2pz       -0.070370  0.028160 -0.018562  0.004843  0.081251  0.119712
  8O   2px        0.196997  0.103724 -0.537222  0.715177 -0.589562  0.180294
  8O   2py        0.849740  0.071660  0.099141 -0.052808 -0.257190  0.077237
  9H   1s         0.002725 -0.612253  0.066693  0.040162 -0.165295 -0.423993
  9H   2s        -0.077990 -0.694706 -0.001557  0.237208  0.041061 -0.268406
 10H   1s        -0.056720  0.174824  0.168015 -0.026814 -0.215392 -0.450610
 10H   2s        -0.166955  0.143122  0.302152 -0.070796 -0.241581 -0.250849
 11H   1s        -0.021481 -0.228711  0.156308 -0.075197  0.086700  0.488386
 11H   2s        -0.144400 -0.233965  0.276318 -0.112334 -0.058389  0.336621
 12H   1s        -0.071944  0.558789  0.222961  0.003482  0.117165  0.429438
 12H   2s        -0.151405  0.623973  0.140024  0.184261  0.191281  0.211582
 13H   1s         0.055412  0.555978 -0.212375  0.086287  0.087796 -0.553033
 13H   2s         0.126889  0.656698 -0.068907  0.037980  0.206427 -0.442548
 14H   1s         0.286593 -0.270959 -0.245323  0.062970  0.167371 -0.305290
 14H   2s         0.451061 -0.482361 -0.257303  0.031911  0.154186  0.020312
 15H   1s         0.133146 -0.466981 -0.347872  0.079569  0.371314  0.419029
 15H   2s         0.260890 -0.563405 -0.222136  0.042042  0.385042  0.245927
 16H   1s         0.253174  0.351255 -0.191359  0.058913  0.303209  0.167553
 16H   2s         0.368112  0.575450 -0.148568  0.034310  0.110443 -0.084498
 17H   1s         0.072384  0.001200  0.241717  0.315621  0.102791 -0.084579
 17H   2s         0.092060  0.105836  0.133808  0.121676  0.099515 -0.113133
 18H   1s         0.482952 -0.014580  0.318231 -0.187273  0.259155 -0.109095
 18H   2s         0.756244 -0.056387  0.718822  0.193841  0.098049 -0.008200
 19H   1s         0.121708 -0.042142  0.225049  0.332948  0.128485  0.019725
 19H   2s         0.150348 -0.067721  0.052531  0.113930  0.119357  0.027984
                    102   
                   2.07350
                   0.00000
                  --------
  0C   1s        -0.002708
  0C   2s        -0.006653
  0C   1pz       -0.007497
  0C   1px        0.001900
  0C   1py        0.016049
  0C   3s         0.305168
  0C   2pz       -0.019538
  0C   2px       -0.147190
  0C   2py        0.038033
  1C   1s         0.006828
  1C   2s         0.097276
  1C   1pz        0.000959
  1C   1px       -0.002816
  1C   1py        0.012638
  1C   3s        -0.198124
  1C   2pz       -0.080494
  1C   2px       -0.094398
  1C   2py       -0.069339
  2C   1s        -0.020749
  2C   2s        -0.267722
  2C   1pz       -0.035116
  2C   1px        0.002308
  2C   1py       -0.040937
  2C   3s         0.440793
  2C   2pz       -0.212400
  2C   2px        0.464552
  2C   2py        0.280548
  3C   1s         0.035046
  3C   2s         0.427083
  3C   1pz       -0.005109
  3C   1px        0.133526
  3C   1py        0.069868
  3C   3s        -2.297428
  3C   2pz        0.189047
  3C   2px       -2.021070
  3C   2py       -1.156821
  4C   1s        -0.014735
  4C   2s        -0.214744
  4C   1pz        0.034723
  4C   1px       -0.011872
  4C   1py       -0.048770
  4C   3s         0.055727
  4C   2pz        0.359199
  4C   2px        0.425905
  4C   2py        0.433374
  5N   1s        -0.010751
  5N   2s         0.010122
  5N   1pz        0.001451
  5N   1px       -0.096566
  5N   1py        0.030661
  5N   3s         1.235493
  5N   2pz       -0.082631
  5N   2px       -0.490575
  5N   2py       -0.165941
  6C   1s        -0.040234
  6C   2s        -0.214402
  6C   1pz        0.000569
  6C   1px        0.270589
  6C   1py       -0.023222
  6C   3s        -0.192032
  6C   2pz       -0.030711
  6C   2px        4.726885
  6C   2py        0.106825
  7O   1s        -0.001704
  7O   2s         1.218524
  7O   1pz        0.019602
  7O   1px       -0.076702
  7O   1py       -0.167427
  7O   3s        -3.458704
  7O   2pz       -0.160631
  7O   2px        0.266651
  7O   2py        1.357176
  8O   1s         0.006602
  8O   2s        -1.709528
  8O   1pz       -0.007674
  8O   1px       -0.155075
  8O   1py        0.040989
  8O   3s         5.076153
  8O   2pz        0.085926
  8O   2px        1.537049
  8O   2py       -0.656113
  9H   1s         0.008402
  9H   2s         0.027272
 10H   1s        -0.040280
 10H   2s        -0.041799
 11H   1s        -0.001751
 11H   2s        -0.012744
 12H   1s         0.030860
 12H   2s         0.031858
 13H   1s        -0.015091
 13H   2s         0.187548
 14H   1s        -0.119333
 14H   2s        -0.285439
 15H   1s         0.022294
 15H   2s         0.162792
 16H   1s        -0.125067
 16H   2s        -0.305786
 17H   1s        -0.063904
 17H   2s         0.000064
 18H   1s         0.443651
 18H   2s         0.023459
 19H   1s        -0.010588
 19H   2s         0.042138



                    ********************************
                    * MULLIKEN POPULATION ANALYSIS *
                    ********************************

-----------------------
MULLIKEN ATOMIC CHARGES
-----------------------
   0 C :   -0.253268
   1 C :   -0.255837
   2 C :   -0.265264
   3 C :    0.066938
   4 C :   -0.258637
   5 N :   -0.767670
   6 C :    0.538986
   7 O :   -0.562869
   8 O :   -0.433066
   9 H :    0.127313
  10 H :    0.143491
  11 H :    0.144579
  12 H :    0.126487
  13 H :    0.179422
  14 H :    0.134941
  15 H :    0.179015
  16 H :    0.129869
  17 H :    0.311283
  18 H :    0.404865
  19 H :    0.309421
Sum of atomic charges:   -0.0000000

--------------------------------
MULLIKEN REDUCED ORBITAL CHARGES
--------------------------------
  0 C s       :     3.303247  s :     3.303247
      pz      :     0.940846  p :     2.950021
      px      :     1.062645
      py      :     0.946530
  1 C s       :     3.303471  s :     3.303471
      pz      :     0.930338  p :     2.952367
      px      :     1.062791
      py      :     0.959238
  2 C s       :     3.318079  s :     3.318079
      pz      :     0.947560  p :     2.947184
      px      :     1.091928
      py      :     0.907697
  3 C s       :     3.279976  s :     3.279976
      pz      :     0.972758  p :     2.653086
      px      :     0.710507
      py      :     0.969822
  4 C s       :     3.315469  s :     3.315469
      pz      :     0.944369  p :     2.943168
      px      :     1.080098
      py      :     0.918701
  5 N s       :     3.651295  s :     3.651295
      pz      :     1.211837  p :     4.116375
      px      :     1.161251
      py      :     1.743287
  6 C s       :     2.996439  s :     2.996439
      pz      :     0.847239  p :     2.464575
      px      :     0.701017
      py      :     0.916318
  7 O s       :     3.931602  s :     3.931602
      pz      :     1.765128  p :     4.631267
      px      :     1.277662
      py      :     1.588477
  8 O s       :     3.961453  s :     3.961453
      pz      :     1.410552  p :     4.471613
      px      :     1.327558
      py      :     1.733503
  9 H s       :     0.872687  s :     0.872687
 10 H s       :     0.856509  s :     0.856509
 11 H s       :     0.855421  s :     0.855421
 12 H s       :     0.873513  s :     0.873513
 13 H s       :     0.820578  s :     0.820578
 14 H s       :     0.865059  s :     0.865059
 15 H s       :     0.820985  s :     0.820985
 16 H s       :     0.870131  s :     0.870131
 17 H s       :     0.688717  s :     0.688717
 18 H s       :     0.595135  s :     0.595135
 19 H s       :     0.690579  s :     0.690579


                     *******************************
                     * LOEWDIN POPULATION ANALYSIS *
                     *******************************

----------------------
LOEWDIN ATOMIC CHARGES
----------------------
   0 C :   -0.202242
   1 C :   -0.203053
   2 C :   -0.194513
   3 C :   -0.004692
   4 C :   -0.195455
   5 N :   -0.444870
   6 C :    0.227400
   7 O :   -0.339798
   8 O :   -0.290742
   9 H :    0.101375
  10 H :    0.113334
  11 H :    0.113709
  12 H :    0.100909
  13 H :    0.129887
  14 H :    0.107915
  15 H :    0.129784
  16 H :    0.106002
  17 H :    0.221117
  18 H :    0.303852
  19 H :    0.220079

-------------------------------
LOEWDIN REDUCED ORBITAL CHARGES
-------------------------------
  0 C s       :     2.969433  s :     2.969433
      pz      :     1.052209  p :     3.232809
      px      :     1.125836
      py      :     1.054765
  1 C s       :     2.969695  s :     2.969695
      pz      :     1.045679  p :     3.233358
      px      :     1.125595
      py      :     1.062084
  2 C s       :     2.974204  s :     2.974204
      pz      :     1.057683  p :     3.220309
      px      :     1.133405
      py      :     1.029221
  3 C s       :     2.937165  s :     2.937165
      pz      :     1.079431  p :     3.067527
      px      :     0.920403
      py      :     1.067693
  4 C s       :     2.974259  s :     2.974259
      pz      :     1.052169  p :     3.221196
      px      :     1.129270
      py      :     1.039757
  5 N s       :     3.260632  s :     3.260632
      pz      :     1.239422  p :     4.184238
      px      :     1.218346
      py      :     1.726471
  6 C s       :     2.923379  s :     2.923379
      pz      :     0.842217  p :     2.849221
      px      :     0.993032
      py      :     1.013971
  7 O s       :     3.595701  s :     3.595701
      pz      :     1.762896  p :     4.744097
      px      :     1.336435
      py      :     1.644766
  8 O s       :     3.636256  s :     3.636256
      pz      :     1.423991  p :     4.654486
      px      :     1.442454
      py      :     1.788041
  9 H s       :     0.898625  s :     0.898625
 10 H s       :     0.886666  s :     0.886666
 11 H s       :     0.886291  s :     0.886291
 12 H s       :     0.899091  s :     0.899091
 13 H s       :     0.870113  s :     0.870113
 14 H s       :     0.892085  s :     0.892085
 15 H s       :     0.870216  s :     0.870216
 16 H s       :     0.893998  s :     0.893998
 17 H s       :     0.778883  s :     0.778883
 18 H s       :     0.696148  s :     0.696148
 19 H s       :     0.779921  s :     0.779921


                      *****************************
                      * MAYER POPULATION ANALYSIS *
                      *****************************

  NA   - Mulliken gross atomic population
  ZA   - Total nuclear charge
  QA   - Mulliken gross atomic charge
  VA   - Mayer's total valence
  BVA  - Mayer's bonded valence
  FA   - Mayer's free valence

  ATOM       NA         ZA         QA         VA         BVA        FA
  0 C      6.2533     6.0000    -0.2533     3.7579     3.7579    -0.0000
  1 C      6.2558     6.0000    -0.2558     3.7599     3.7599     0.0000
  2 C      6.2653     6.0000    -0.2653     3.7278     3.7278     0.0000
  3 C      5.9331     6.0000     0.0669     3.5368     3.5368    -0.0000
  4 C      6.2586     6.0000    -0.2586     3.7271     3.7271    -0.0000
  5 N      7.7677     7.0000    -0.7677     2.7105     2.7105    -0.0000
  6 C      5.4610     6.0000     0.5390     3.7205     3.7205    -0.0000
  7 O      8.5629     8.0000    -0.5629     1.8356     1.8356    -0.0000
  8 O      8.4331     8.0000    -0.4331     2.0174     2.0174     0.0000
  9 H      0.8727     1.0000     0.1273     0.9376     0.9376    -0.0000
 10 H      0.8565     1.0000     0.1435     0.9366     0.9366    -0.0000
 11 H      0.8554     1.0000     0.1446     0.9361     0.9361     0.0000
 12 H      0.8735     1.0000     0.1265     0.9374     0.9374     0.0000
 13 H      0.8206     1.0000     0.1794     0.9372     0.9372     0.0000
 14 H      0.8651     1.0000     0.1349     0.9379     0.9379     0.0000
 15 H      0.8210     1.0000     0.1790     0.9382     0.9382    -0.0000
 16 H      0.8701     1.0000     0.1299     0.9393     0.9393     0.0000
 17 H      0.6887     1.0000     0.3113     0.8684     0.8684    -0.0000
 18 H      0.5951     1.0000     0.4049     0.8361     0.8361     0.0000
 19 H      0.6906     1.0000     0.3094     0.8688     0.8688    -0.0000

  Mayer bond orders larger than 0.1
B(  0-C ,  1-C ) :   0.9544 B(  0-C ,  4-C ) :   0.9472 B(  0-C ,  9-H ) :   0.9549 
B(  0-C , 10-H ) :   0.9523 B(  1-C ,  2-C ) :   0.9477 B(  1-C , 11-H ) :   0.9522 
B(  1-C , 12-H ) :   0.9552 B(  2-C ,  3-C ) :   0.9457 B(  2-C , 13-H ) :   0.9298 
B(  2-C , 14-H ) :   0.9430 B(  3-C ,  4-C ) :   0.9446 B(  3-C ,  5-N ) :   0.8508 
B(  3-C ,  6-C ) :   0.8327 B(  4-C , 15-H ) :   0.9281 B(  4-C , 16-H ) :   0.9442 
B(  5-N , 17-H ) :   0.8561 B(  5-N , 18-H ) :   0.1338 B(  5-N , 19-H ) :   0.8562 
B(  6-C ,  7-O ) :   1.0274 B(  6-C ,  8-O ) :   1.8477 B(  7-O , 18-H ) :   0.6822 


-------
TIMINGS
-------

Total SCF time: 0 days 0 hours 0 min 20 sec 

Total time                  ....      20.616 sec
Sum of individual times     ....      20.600 sec  ( 99.9%)

Fock matrix formation       ....      18.584 sec  ( 90.1%)
  XC integration            ....       3.725 sec  ( 20.0% of F)
    Basis function eval.    ....       2.644 sec  ( 71.0% of XC)
    Density eval.           ....       0.344 sec  (  9.2% of XC)
    XC-Functional eval.     ....       0.212 sec  (  5.7% of XC)
    XC-Potential eval.      ....       0.472 sec  ( 12.7% of XC)
Diagonalization             ....       0.001 sec  (  0.0%)
Density matrix formation    ....       0.001 sec  (  0.0%)
Population analysis         ....       0.003 sec  (  0.0%)
Initial guess               ....       0.001 sec  (  0.0%)
Orbital Transformation      ....       0.000 sec  (  0.0%)
Orbital Orthonormalization  ....       0.001 sec  (  0.0%)
DIIS solution               ....       0.000 sec  (  0.0%)
SOSCF solution              ....       0.025 sec  (  0.1%)
Grid generation             ....       1.985 sec  (  9.6%)

-------------------------   --------------------
FINAL SINGLE POINT ENERGY      -440.080469507176
-------------------------   --------------------

                                *** OPTIMIZATION RUN DONE ***

                            ***************************************
                            *     ORCA property calculations      *
                            ***************************************

                                    ---------------------
                                    Active property flags
                                    ---------------------
   (+) Dipole Moment
   (+) Quadrupole Moment


------------------------------------------------------------------------------
                       ORCA ELECTRIC PROPERTIES CALCULATION
------------------------------------------------------------------------------

Dipole Moment Calculation                       ... on
Quadrupole Moment Calculation                   ... on
Polarizability Calculation                      ... off
GBWName                                         ... orca_input.gbw
Electron density file                           ... orca_input.scfp.tmp
The origin for moment calculation is the CENTER OF MASS  = ( 1.183401, -0.028594  0.077662)

-------------
DIPOLE MOMENT
-------------
                                X             Y             Z
Electronic contribution:     -1.09984       9.09622      -0.88343
Nuclear contribution   :      2.51291     -11.14994       1.14029
                        -----------------------------------------
Total Dipole Moment    :      1.41307      -2.05372       0.25686
                        -----------------------------------------
Magnitude (a.u.)       :      2.50609
Magnitude (Debye)      :      6.36999


------------------------
QUADRUPOLE MOMENT (A.U.)
------------------------

                XX           YY           ZZ           XY           XZ           YZ
  NUC       228.07812    671.13390    163.63147     21.11927     -2.41327    -49.40286
  EL       -267.66808   -719.82024   -201.92288    -18.42753      2.37664     50.63039
  TOT       -39.58996    -48.68634    -38.29141      2.69174     -0.03664      1.22753 (a.u.)
            -53.24985    -65.48479    -51.50326      3.62048     -0.04928      1.65107 (Buckingham)

diagonalized tensor: 
  -49.54982    -38.95711    -38.06078   (a.u.)
  -66.64620    -52.39865    -51.19305   (Buckingham)
  -22.08175      9.69637     12.38538   (traceless form in Buckingham)

    0.25980      0.91698      0.30273  
   -0.95988      0.21098      0.18471  
    0.10550     -0.33857      0.93501  

Isotropic quadrupole : -42.18924


Timings for individual modules:

Sum of individual times         ...      579.017 sec (=   9.650 min)
GTO integral calculation        ...        3.267 sec (=   0.054 min)   0.6 %
SCF iterations                  ...      430.078 sec (=   7.168 min)  74.3 %
SCF Gradient evaluation         ...      144.828 sec (=   2.414 min)  25.0 %
Geometry relaxation             ...        0.845 sec (=   0.014 min)   0.1 %
                             ****ORCA TERMINATED NORMALLY****
TOTAL RUN TIME: 0 days 0 hours 9 minutes 39 seconds 808 msec
