 *******************************************************************************
 ** Site#: 28546        For non-commercial use only    Version 18.184L 64BITS **
 *******************************************************************************
 ** Cite this program as: MOPAC2016, Version: 18.184L, James J. P. Stewart,   **
 ** Stewart Computational Chemistry, web: HTTP://OpenMOPAC.net. Days left: 305**
 *******************************************************************************
 **                                                                           **
 **                                MOPAC2016                                  **
 **                                                                           **
 *******************************************************************************

                              PM6 CALCULATION RESULTS

 *******************************************************************************
 *  CALCULATION DONE:                                Sat Sep  1 15:48:59 2018  *
 *  PM6        - The PM6 Hamiltonian to be used
 *  SINGLET    - SPIN STATE DEFINED AS A SINGLET
 *
 *
 *
 *                 CHARGE ON SYSTEM = 0
 *
 *
 *
 *  XYZ        - CARTESIAN COORDINATE SYSTEM TO BE USED
 *  T=         - A TIME OF 172800.0 SECONDS REQUESTED
 *  DUMP=N     - RESTART FILE WRITTEN EVERY  7200.000 SECONDS
 *  AUX        - OUTPUT AUXILIARY INFORMATION
 *  BONDS      - FINAL BOND-ORDER MATRIX TO BE PRINTED
 *******************************************************************************
PM6 XYZ CHARGE=0 Singlet BONDS AUX

 File generated by El_Dryosa
   ATOM   CHEMICAL          X               Y               Z
  NUMBER   SYMBOL      (ANGSTROMS)     (ANGSTROMS)     (ANGSTROMS)
 
     1       N         -0.27390000  *  -1.47550000  *  -0.71700000  *
     2       C          0.44940000  *  -0.85080000  *   0.38510000  *
     3       C         -0.11060000  *   0.57060000  *   0.38540000  *
     4       C          1.98590000  *  -0.97060000  *   0.20940000  *
     5       O          2.69280000  *  -0.37590000  *   1.27660000  *
     6       O         -1.34980000  *   0.65310000  *   0.22840000  *
     7       O          0.68720000  *   1.52490000  *   0.43390000  *
     8       H         -1.20760000  *  -1.09630000  *  -0.58010000  *
     9       H          0.08270000  *  -1.09810000  *  -1.57970000  *
    10       H         -0.24880000  *  -2.47910000  *  -0.67430000  *
    11       H          0.14530000  *  -1.32550000  *   1.31870000  *
    12       H          2.30310000  *  -0.48320000  *  -0.71480000  *
    13       H          2.28850000  *  -2.01600000  *   0.14260000  *
    14       H          2.37930000  *   0.53090000  *   1.32730000  *
 

                                Isotopes Used

              Atom:    1  N  Default mass 14.0067,  mass used:  1.0000 amu
              Atom:    2  C  Default mass 12.0110,  mass used:  2.0000 amu
              Atom:    3  C  Default mass 12.0110,  mass used:  3.0000 amu
              Atom:    4  C  Default mass 12.0110,  mass used:  4.0000 amu
              Atom:    5  O  Default mass 15.9994,  mass used:  5.0000 amu
              Atom:    6  O  Default mass 15.9994,  mass used:  6.0000 amu
              Atom:    7  O  Default mass 15.9994,  mass used:  7.0000 amu
              Atom:    8  H  Default mass  1.0079,  mass used:  8.0000 amu
              Atom:    9  H  Default mass  1.0079,  mass used:  9.0000 amu
              Atom:   10  H  Default mass  1.0079,  mass used: 10.0000 amu
              Atom:   11  H  Default mass  1.0079,  mass used: 11.0000 amu
              Atom:   12  H  Default mass  1.0079,  mass used: 12.0000 amu
              Atom:   13  H  Default mass  1.0079,  mass used: 13.0000 amu
              Atom:   14  H  Default mass  1.0079,  mass used: 14.0000 amu


          CARTESIAN COORDINATES 

    NO.       ATOM           X           Y           Z

     1         N         -0.2739     -1.4755     -0.7170
     2         C          0.4494     -0.8508      0.3851
     3         C         -0.1106      0.5706      0.3854
     4         C          1.9859     -0.9706      0.2094
     5         O          2.6928     -0.3759      1.2766
     6         O         -1.3498      0.6531      0.2284
     7         O          0.6872      1.5249      0.4339
     8         H         -1.2076     -1.0963     -0.5801
     9         H          0.0827     -1.0981     -1.5797
    10         H         -0.2488     -2.4791     -0.6743
    11         H          0.1453     -1.3255      1.3187
    12         H          2.3031     -0.4832     -0.7148
    13         H          2.2885     -2.0160      0.1426
    14         H          2.3793      0.5309      1.3273

 General Reference for PM6:
 "Optimization of Parameters for Semiempirical Methods V: Modification of NDDO Approximations
 and Application to 70 Elements", J. J. P. Stewart, J. Mol. Mod., 13, 1173-1213 (2007)
 URL: http://www.springerlink.com/content/ar33482301010477/fulltext.pdf

           Empirical Formula: C3 H7 N O3  =    14 atoms



      MOLECULAR POINT GROUP   :   C1  


 SINGLET STATE CALCULATION


      RHF CALCULATION, NO. OF DOUBLY OCCUPIED LEVELS = 21


          Geometry optimization using EF

          DIAGONAL MATRIX USED AS START HESSIAN

 CYCLE:     1 TIME:   0.004 TIME LEFT:  2.00D  GRAD.:   149.552 HEAT: -107.9627
 CYCLE:     2 TIME:   0.004 TIME LEFT:  2.00D  GRAD.:   116.161 HEAT: -114.9338
 CYCLE:     3 TIME:   0.004 TIME LEFT:  2.00D  GRAD.:    93.992 HEAT: -117.3626
 CYCLE:     4 TIME:   0.004 TIME LEFT:  2.00D  GRAD.:    77.160 HEAT: -118.1955
 CYCLE:     5 TIME:   0.000 TIME LEFT:  2.00D  GRAD.:    69.689 HEAT: -119.2424
 CYCLE:     6 TIME:   0.000 TIME LEFT:  2.00D  GRAD.:    57.915 HEAT: -119.5738
 CYCLE:     7 TIME:   0.004 TIME LEFT:  2.00D  GRAD.:    67.310 HEAT: -119.9108
 CYCLE:     8 TIME:   0.004 TIME LEFT:  2.00D  GRAD.:    48.060 HEAT: -120.3084
 CYCLE:     9 TIME:   0.004 TIME LEFT:  2.00D  GRAD.:    32.149 HEAT: -121.0081
 CYCLE:    10 TIME:   0.000 TIME LEFT:  2.00D  GRAD.:    14.671 HEAT: -121.2414
 CYCLE:    11 TIME:   0.004 TIME LEFT:  2.00D  GRAD.:    20.538 HEAT: -121.3935
 CYCLE:    12 TIME:   0.000 TIME LEFT:  2.00D  GRAD.:    19.651 HEAT: -121.6612
 CYCLE:    13 TIME:   0.004 TIME LEFT:  2.00D  GRAD.:    35.219 HEAT: -121.8533
 CYCLE:    14 TIME:   0.000 TIME LEFT:  2.00D  GRAD.:    12.835 HEAT: -122.3078
 CYCLE:    15 TIME:   0.004 TIME LEFT:  2.00D  GRAD.:    32.451 HEAT: -122.4034
 CYCLE:    16 TIME:   0.000 TIME LEFT:  2.00D  GRAD.:    32.932 HEAT: -122.5764
 CYCLE:    17 TIME:   0.004 TIME LEFT:  2.00D  GRAD.:    29.252 HEAT: -122.6803
 CYCLE:    18 TIME:   0.004 TIME LEFT:  2.00D  GRAD.:    20.287 HEAT: -122.9475
 CYCLE:    19 TIME:   0.000 TIME LEFT:  2.00D  GRAD.:    14.737 HEAT: -123.0406
 CYCLE:    20 TIME:   0.004 TIME LEFT:  2.00D  GRAD.:    21.294 HEAT: -123.0587
 CYCLE:    21 TIME:   0.000 TIME LEFT:  2.00D  GRAD.:    13.496 HEAT: -123.2082
 CYCLE:    22 TIME:   0.004 TIME LEFT:  2.00D  GRAD.:    15.390 HEAT: -123.2350
 CYCLE:    23 TIME:   0.000 TIME LEFT:  2.00D  GRAD.:     9.459 HEAT: -123.3329
 CYCLE:    24 TIME:   0.004 TIME LEFT:  2.00D  GRAD.:    11.942 HEAT: -123.3517
 CYCLE:    25 TIME:   0.004 TIME LEFT:  2.00D  GRAD.:     3.412 HEAT: -123.4257
 CYCLE:    26 TIME:   0.000 TIME LEFT:  2.00D  GRAD.:     4.119 HEAT: -123.4782
 CYCLE:    27 TIME:   0.004 TIME LEFT:  2.00D  GRAD.:     6.208 HEAT: -123.5704
 CYCLE:    28 TIME:   0.000 TIME LEFT:  2.00D  GRAD.:     3.609 HEAT: -123.7425
 CYCLE:    29 TIME:   0.004 TIME LEFT:  2.00D  GRAD.:    21.950 HEAT: -123.8148
 CYCLE:    30 TIME:   0.000 TIME LEFT:  2.00D  GRAD.:    10.399 HEAT: -123.9121
 CYCLE:    31 TIME:   0.004 TIME LEFT:  2.00D  GRAD.:     7.566 HEAT: -123.9835
 CYCLE:    32 TIME:   0.000 TIME LEFT:  2.00D  GRAD.:     7.854 HEAT: -124.0815
 CYCLE:    33 TIME:   0.004 TIME LEFT:  2.00D  GRAD.:    10.013 HEAT: -124.1660
 CYCLE:    34 TIME:   0.000 TIME LEFT:  2.00D  GRAD.:     7.965 HEAT: -124.2595
 CYCLE:    35 TIME:   0.004 TIME LEFT:  2.00D  GRAD.:     8.184 HEAT: -124.3522
 CYCLE:    36 TIME:   0.000 TIME LEFT:  2.00D  GRAD.:     6.010 HEAT: -124.4383
 CYCLE:    37 TIME:   0.004 TIME LEFT:  2.00D  GRAD.:     8.182 HEAT: -124.4636
 CYCLE:    38 TIME:   0.000 TIME LEFT:  2.00D  GRAD.:     4.387 HEAT: -124.4992
 CYCLE:    39 TIME:   0.000 TIME LEFT:  2.00D  GRAD.:     3.261 HEAT: -124.5324
 CYCLE:    40 TIME:   0.004 TIME LEFT:  2.00D  GRAD.:     3.654 HEAT: -124.5437
 CYCLE:    41 TIME:   0.000 TIME LEFT:  2.00D  GRAD.:     2.599 HEAT: -124.5558
 CYCLE:    42 TIME:   0.004 TIME LEFT:  2.00D  GRAD.:     2.196 HEAT: -124.5594
 CYCLE:    43 TIME:   0.000 TIME LEFT:  2.00D  GRAD.:     1.934 HEAT: -124.5629
 CYCLE:    44 TIME:   0.000 TIME LEFT:  2.00D  GRAD.:     1.099 HEAT: -124.5674
 CYCLE:    45 TIME:   0.004 TIME LEFT:  2.00D  GRAD.:     0.882 HEAT: -124.5684

     GRADIENT =  0.88209  IS LESS THAN CUTOFF =  1.00000



 -------------------------------------------------------------------------------
 PM6 XYZ CHARGE=0 Singlet BONDS AUX

 File generated by El_Dryosa


     GEOMETRY OPTIMISED USING EIGENVECTOR FOLLOWING (EF).     
     SCF FIELD WAS ACHIEVED                                   


                              PM6 CALCULATION
                                                       MOPAC2016 (Version: 18.184L)
                                                       Sat Sep  1 15:48:59 2018
                                                       No. of days remaining = 305




          FINAL HEAT OF FORMATION =       -124.56836 KCAL/MOL =    -521.19404 KJ/MOL


          TOTAL ENERGY            =      -1516.76367 EV
          ELECTRONIC ENERGY       =      -5874.81384 EV  POINT GROUP:     C1  
          CORE-CORE REPULSION     =       4358.05018 EV
          COSMO AREA              =        129.07 SQUARE ANGSTROMS
          COSMO VOLUME            =        118.42 CUBIC ANGSTROMS

          GRADIENT NORM           =          0.88209 = 0.23575 PER ATOM
          IONIZATION POTENTIAL    =         10.194761 EV
          HOMO LUMO ENERGIES (EV) =        -10.195  0.291
          NO. OF FILLED LEVELS    =         21
          MOLECULAR WEIGHT        =        105.0000

          MOLECULAR DIMENSIONS (Angstroms)

            Atom       Atom       Distance
            H    14    H    10     4.64871
            H    13    O     6     4.31181
            H    11    H    12     2.84030


          SCF CALCULATIONS        =         54
 
          WALL-CLOCK TIME         =          0.133 SECONDS
          COMPUTATION TIME        =          0.387 SECONDS




   ATOM   CHEMICAL          X               Y               Z
  NUMBER   SYMBOL      (ANGSTROMS)     (ANGSTROMS)     (ANGSTROMS)
 
     1       N         -0.34148337  *  -1.56874522  *  -0.67993076  *
     2       C          0.50965458  *  -0.91175603  *   0.37917679  *
     3       C         -0.06337900  *   0.59844785  *   0.43877524  *
     4       C          2.01053648  *  -0.88407460  *   0.06857378  *
     5       O          2.69786090  *  -0.35490224  *   1.19293070  *
     6       O         -1.09594765  *   0.68011230  *  -0.28032405  *
     7       O          0.55581891  *   1.39663119  *   1.11424992  *
     8       H         -1.14001565  *  -0.76712603  *  -0.89966689  *
     9       H          0.18476830  *  -1.76615608  *  -1.53289474  *
    10       H         -0.77441791  *  -2.43071187  *  -0.34691956  *
    11       H          0.34168179  *  -1.37227683  *   1.37905364  *
    12       H          2.23356387  *  -0.26810784  *  -0.82431269  *
    13       H          2.44317579  *  -1.89559220  *  -0.04825202  *
    14       H          2.31580844  *   0.55239438  *   1.43131449  *

                             CARTESIAN COORDINATES

   1    N       -0.341483373    -1.568745223    -0.679930760
   2    C        0.509654580    -0.911756033     0.379176786
   3    C       -0.063379001     0.598447847     0.438775244
   4    C        2.010536477    -0.884074604     0.068573783
   5    O        2.697860896    -0.354902244     1.192930699
   6    O       -1.095947647     0.680112299    -0.280324049
   7    O        0.555818906     1.396631195     1.114249925
   8    H       -1.140015646    -0.767126034    -0.899666886
   9    H        0.184768298    -1.766156083    -1.532894741
  10    H       -0.774417912    -2.430711871    -0.346919556
  11    H        0.341681790    -1.372276834     1.379053643
  12    H        2.233563868    -0.268107840    -0.824312687
  13    H        2.443175795    -1.895592205    -0.048252020
  14    H        2.315808439     0.552394378     1.431314486


           Empirical Formula: C3 H7 N O3  =    14 atoms



      MOLECULAR POINT GROUP   :   C1  


                  EIGENVALUES  
 -34.76946 -31.26628 -30.17304 -29.75063 -26.12799 -23.34924 -20.42334 -19.58122
 -19.33123 -17.95784 -17.63313 -15.66553 -15.42484 -14.74111 -14.65582 -14.05589
 -12.90246 -11.13108 -11.10670 -10.76591 -10.19476   0.29066   1.55553   2.02444
   2.31148   2.68045   2.79496   3.61996   3.68145   4.42564   4.53281   4.79260
   4.94665   5.20642   5.92096


              NET ATOMIC CHARGES AND DIPOLE CONTRIBUTIONS

  ATOM NO.   TYPE          CHARGE      No. of ELECS.   s-Pop       p-Pop       
    1          N          -0.169889        5.1699     1.44057     3.72932
    2          C          -0.396310        4.3963     1.16811     3.22820
    3          C           0.711072        3.2889     1.04534     2.24359
    4          C           0.027096        3.9729     1.09241     2.88049
    5          O          -0.538491        6.5385     1.83026     4.70823
    6          O          -0.679720        6.6797     1.86764     4.81208
    7          O          -0.574157        6.5742     1.85297     4.72119
    8          H           0.348425        0.6516     0.65157
    9          H           0.231168        0.7688     0.76883
   10          H           0.231991        0.7680     0.76801
   11          H           0.198078        0.8019     0.80192
   12          H           0.122588        0.8774     0.87741
   13          H           0.133617        0.8664     0.86638
   14          H           0.354530        0.6455     0.64547
 DIPOLE           X         Y         Z       TOTAL
 POINT-CHG.    -0.993    -7.902    -4.264     9.034
 HYBRID        -0.165    -0.456    -0.067     0.490
 SUM           -1.158    -8.359    -4.331     9.485


          ATOMIC ORBITAL ELECTRON POPULATIONS

     Atom    s        px        py        pz   
    1  N   1.44057   1.28133   1.25391   1.19408
    2  C   1.16811   1.02043   1.20591   1.00186
    3  C   1.04534   0.75028   0.76847   0.72484
    4  C   1.09241   0.87883   1.07636   0.92529
    5  O   1.83026   1.65846   1.51377   1.53600
    6  O   1.86764   1.44662   1.78100   1.58445
    7  O   1.85297   1.62063   1.57596   1.52459
    8  H   0.65157
    9  H   0.76883
   10  H   0.76801
   11  H   0.80192
   12  H   0.87741
   13  H   0.86638
   14  H   0.64547

          BONDING CONTRIBUTION OF EACH M.O.

  1.5705  1.4103  1.2859  1.2793  1.4704  1.6459  1.7578  1.3064  1.4384  1.6117
  1.7987  1.6127  1.5862  1.2512  0.9248  1.5984  1.2312  0.6341  0.6199  0.4731
  0.8958 -1.9545 -2.0301 -2.1745 -1.9528 -2.0243 -1.8806 -1.9137 -1.8839 -1.9494
 -1.9335 -1.9875 -1.9778 -1.9135 -1.8267





            (VALENCIES)   BOND ORDERS

     1  N     (3.591)     2  C 0.940    10  H 0.928     9  H 0.928     8  H 0.712     6  O 0.056     5  O 0.010
 
     2  C     (3.791)     4  C 0.961    11  H 0.944     1  N 0.940     3  C 0.730     7  O 0.089     6  O 0.082
                          5  O 0.029
 
     3  C     (3.798)     7  O 1.651     6  O 1.393     2  C 0.730
 
     4  C     (3.905)     5  O 0.993    12  H 0.965    13  H 0.965     2  C 0.961
 
     5  O     (1.901)     4  C 0.993    14  H 0.842     2  C 0.029    12  H 0.012     1  N 0.010
 
     6  O     (1.879)     3  C 1.393     7  O 0.181     8  H 0.153     2  C 0.082     1  N 0.056
 
     7  O     (1.966)     3  C 1.651     6  O 0.181     2  C 0.089    14  H 0.018
 
     8  H     (0.879)     1  N 0.712     6  O 0.153
 
     9  H     (0.947)     1  N 0.928
 
    10  H     (0.946)     1  N 0.928
 
    11  H     (0.961)     2  C 0.944
 
    12  H     (0.985)     4  C 0.965     5  O 0.012
 
    13  H     (0.982)     4  C 0.965
 
    14  H     (0.874)     5  O 0.842     7  O 0.018
 

 **********************
 *                    *
 * JOB ENDED NORMALLY *
 *                    *
 **********************



 TOTAL JOB TIME:             0.14 SECONDS

 == MOPAC DONE ==
