
                                 *****************
                                 * O   R   C   A *
                                 *****************

           --- An Ab Initio, DFT and Semiempirical electronic structure package ---

                  #######################################################
                  #                        -***-                        #
                  #  Department of molecular theory and spectroscopy    #
                  #              Directorship: Frank Neese              #
                  # Max Planck Institute for Chemical Energy Conversion #
                  #                  D-45470 Muelheim/Ruhr              #
                  #                       Germany                       #
                  #                                                     #
                  #                  All rights reserved                #
                  #                        -***-                        #
                  #######################################################


                         Program Version 4.0.1.2 - RELEASE -


 With contributions from (in alphabetic order):
   Daniel Aravena         : Magnetic Properties
   Michael Atanasov       : Ab Initio Ligand Field Theory
   Ute Becker             : Parallelization
   Martin Brehm           : Molecular dynamics
   Dmytro Bykov           : SCF Hessian
   Vijay G. Chilkuri      : MRCI spin determinant printing
   Dipayan Datta          : RHF DLPNO-CCSD density
   Achintya Kumar Dutta   : EOM-CC, STEOM-CC
   Dmitry Ganyushin       : Spin-Orbit,Spin-Spin,Magnetic field MRCI
   Yang Guo               : DLPNO-NEVPT2, CIM, IAO-localization
   Andreas Hansen         : Spin unrestricted coupled pair/coupled cluster methods
   Lee Huntington         : MR-EOM, pCC
   Robert Izsak           : Overlap fitted RIJCOSX, COSX-SCS-MP3, EOM
   Christian Kollmar      : KDIIS, OOCD, Brueckner-CCSD(T), CCSD density
   Simone Kossmann        : Meta GGA functionals, TD-DFT gradient, OOMP2, MP2 Hessian
   Martin Krupicka        : AUTO-CI
   Dagmar Lenk            : GEPOL surface
   Dimitrios Liakos       : Extrapolation schemes; parallel MDCI
   Dimitrios Manganas     : ROCIS; embedding schemes
   Dimitrios Pantazis     : SARC Basis sets
   Taras Petrenko         : DFT Hessian,TD-DFT gradient, ASA, ECA, R-Raman, ABS, FL, XAS/XES, NRVS
   Peter Pinski           : DLPNO-MP2
   Christoph Reimann      : Effective Core Potentials
   Marius Retegan         : Local ZFS, SOC
   Christoph Riplinger    : Optimizer, TS searches, QM/MM, DLPNO-CCSD(T), (RO)-DLPNO pert. Triples
   Tobias Risthaus        : Range-separated hybrids, TD-DFT gradient, RPA, STAB
   Michael Roemelt        : Restricted open shell CIS
   Masaaki Saitow         : Open-shell DLPNO
   Barbara Sandhoefer     : DKH picture change effects
   Kantharuban Sivalingam : CASSCF convergence, NEVPT2, FIC-MRCI
   Georgi Stoychev        : AutoAux
   Boris Wezisla          : Elementary symmetry handling
   Frank Wennmohs         : Technical directorship


 We gratefully acknowledge several colleagues who have allowed us to
 interface, adapt or use parts of their codes:
   Stefan Grimme, W. Hujo, H. Kruse,             : VdW corrections, initial TS optimization,
                  C. Bannwarth                     DFT functionals, gCP, sTDA/sTD-DF
   Ed Valeev                                     : LibInt (2-el integral package), F12 methods
   Garnet Chan, S. Sharma, J. Yang, R. Olivares  : DMRG
   Ulf Ekstrom                                   : XCFun DFT Library
   Mihaly Kallay                                 : mrcc  (arbitrary order and MRCC methods)
   Andreas Klamt, Michael Diedenhofen            : otool_cosmo (COSMO solvation model)
   Jiri Pittner, Ondrej Demel                    : Mk-CCSD
   Frank Weinhold                                : gennbo (NPA and NBO analysis)
   Christopher J. Cramer and Donald G. Truhlar   : smd solvation model


 Your calculation uses the libint2 library for the computation of 2-el integrals
 For citations please refer to: http://libint.valeyev.net

 This ORCA versions uses:
   CBLAS   interface :  Fast vector & matrix operations
   LAPACKE interface :  Fast linear algebra routines
   SCALAPACK package :  Parallel linear algebra routines


Your calculation utilizes the basis: 6-31G
   H-He, Li-Ne : W. J. Hehre, R. Ditchfield and J.A. Pople, J. Chem. Phys. 56, 2257 (1972).
                 Note: He and Ne are unpublished basis sets taken from the Gaussian program.
                 Note: Li and B from J. D. Dill and J. A. Pople, J. Chem. Phys. 62, 2921 (1975).
   Na - Ar     : M. M. Francl, W. J. Pietro, W. J. Hehre, J. S. Binkley, M. S. Gordon, 
                 D. J. DeFrees and J. A. Pople, J. Chem. Phys. 77, 3654 (1982).
   K - Zn      : V. A. Rassolov, J. A. Pople, M. A. Ratner, and T. L. Windus, J. Chem. Phys. 109, 1223 (1998).

================================================================================
                                        WARNINGS
                       Please study these warnings very carefully!
================================================================================

Warning: TCutStore was < 0. Adjusted to Thresh (uncritical)

INFO   : the flag for use of LIBINT has been found!

================================================================================
                                       INPUT FILE
================================================================================
NAME = orca_orbitals.in
|  1> # Test redundant internal optimization for: agonist1.mol2
|  2> #
|  3> ! B3LYP
|  4> ! PrintBasis 6-31G keepdens
|  5> %output
|  6>  print[P_MOs]1
|  7>  end #output
|  8> * xyz 0 1
|  9>   N1      -0.34148337   -1.56874522   -0.67993076 
| 10>   C2       0.50965458   -0.91175603    0.37917679 
| 11>   C3      -0.06337900    0.59844785    0.43877524 
| 12>   C4       2.01053648   -0.88407460    0.06857378 
| 13>   O5       2.69786090   -0.35490224    1.19293070 
| 14>   O6      -1.09594765    0.68011230   -0.28032405 
| 15>   O7       0.55581891    1.39663119    1.11424992 
| 16>   H8      -1.14001565   -0.76712603   -0.89966689 
| 17>   H9       0.18476830   -1.76615608   -1.53289474 
| 18>   H10     -0.77441791   -2.43071187   -0.34691956 
| 19>   H11      0.34168179   -1.37227683    1.37905364 
| 20>   H12      2.23356387   -0.26810784   -0.82431269 
| 21>   H13      2.44317579   -1.89559220   -0.04825202 
| 22>   H14      2.31580844    0.55239438    1.43131449 
| 23>  
| 24> *
| 25> %elprop
| 26> Quadrupole True
| 27> end
| 28> %pal
| 29> nprocs                     8
| 30> end
| 31> %plots
| 32> Format CUBE
| 33> MO("orcaHOMO-27.cube",27,0);
| 34> MO("orcaHOMO-1-26.cube",26,0);                    
| 35> MO("orcaHOMO-2-25.cube",25,0);
| 36> MO("orcaLUMO-28.cube",28,0);
| 37> MO("orcaLUMO+1-29.cube",29,0);                    
| 38> MO("orcaLUMO+2-30.cube",30,0);
| 39> endd                         ****END OF INPUT****
================================================================================

                       ****************************
                       * Single Point Calculation *
                       ****************************

---------------------------------
CARTESIAN COORDINATES (ANGSTROEM)
---------------------------------
  N     -0.341483   -1.568745   -0.679931
  C      0.509655   -0.911756    0.379177
  C     -0.063379    0.598448    0.438775
  C      2.010536   -0.884075    0.068574
  O      2.697861   -0.354902    1.192931
  O     -1.095948    0.680112   -0.280324
  O      0.555819    1.396631    1.114250
  H     -1.140016   -0.767126   -0.899667
  H      0.184768   -1.766156   -1.532895
  H     -0.774418   -2.430712   -0.346920
  H      0.341682   -1.372277    1.379054
  H      2.233564   -0.268108   -0.824313
  H      2.443176   -1.895592   -0.048252
  H      2.315808    0.552394    1.431314

----------------------------
CARTESIAN COORDINATES (A.U.)
----------------------------
  NO LB      ZA    FRAG     MASS         X           Y           Z
   0 N     7.0000    0    14.007   -0.645310   -2.964499   -1.284883
   1 C     6.0000    0    12.011    0.963108   -1.722969    0.716540
   2 C     6.0000    0    12.011   -0.119769    1.130903    0.829165
   3 C     6.0000    0    12.011    3.799363   -1.670659    0.129586
   4 O     8.0000    0    15.999    5.098218   -0.670668    2.254312
   5 O     8.0000    0    15.999   -2.071041    1.285226   -0.529736
   6 O     8.0000    0    15.999    1.050346    2.639250    2.105627
   7 H     1.0000    0     1.008   -2.154317   -1.449658   -1.700124
   8 H     1.0000    0     1.008    0.349161   -3.337551   -2.896751
   9 H     1.0000    0     1.008   -1.463438   -4.593380   -0.655583
  10 H     1.0000    0     1.008    0.645685   -2.593227    2.606034
  11 H     1.0000    0     1.008    4.220824   -0.506650   -1.557725
  12 H     1.0000    0     1.008    4.616933   -3.582150   -0.091183
  13 H     1.0000    0     1.008    4.376244    1.043874    2.704792

--------------------------------
INTERNAL COORDINATES (ANGSTROEM)
--------------------------------
 N      0   0   0     0.000000000000     0.00000000     0.00000000
 C      1   0   0     1.509231396498     0.00000000     0.00000000
 C      2   1   0     1.616364815943   103.45400356     0.00000000
 C      2   1   3     1.532934104629   114.69794548   240.51333663
 O      4   2   1     1.420076310790   108.67430695   185.30690623
 O      3   2   1     1.260940477673   109.25636169     7.37191808
 O      3   2   1     1.215223740438   116.97077255   188.24522140
 H      1   2   3     1.152619232360   102.81118865   352.37937848
 H      1   2   3     1.021498614292   112.30664789   109.86042100
 H      1   2   3     1.020448568504   112.20743996   233.24235826
 H      2   1   3     1.113574416274   111.40823379   115.14465552
 H      4   2   1     1.107430591245   111.75206463    64.37469430
 H      4   2   1     1.106342123944   112.81538573   299.59555188
 H      5   4   2     1.012905755828   109.72842515   304.79687510

---------------------------
INTERNAL COORDINATES (A.U.)
---------------------------
 N      0   0   0     0.000000000000     0.00000000     0.00000000
 C      1   0   0     2.852034012096     0.00000000     0.00000000
 C      2   1   0     3.054486834637   103.45400356     0.00000000
 C      2   1   3     2.896825639097   114.69794548   240.51333663
 O      4   2   1     2.683555316663   108.67430695   185.30690623
 O      3   2   1     2.382832173979   109.25636169     7.37191808
 O      3   2   1     2.296440060866   116.97077255   188.24522140
 H      1   2   3     2.178134685851   102.81118865   352.37937848
 H      1   2   3     1.930352627193   112.30664789   109.86042100
 H      1   2   3     1.928368328225   112.20743996   233.24235826
 H      2   1   3     2.104350676498   111.40823379   115.14465552
 H      4   2   1     2.092740529779   111.75206463    64.37469430
 H      4   2   1     2.090683624675   112.81538573   299.59555188
 H      5   4   2     1.914114477988   109.72842515   304.79687510

---------------------
BASIS SET INFORMATION
---------------------
There are 4 groups of distinct atoms

 Group   1 Type N   : 10s4p contracted to 3s2p pattern {631/31}
 Group   2 Type C   : 10s4p contracted to 3s2p pattern {631/31}
 Group   3 Type O   : 10s4p contracted to 3s2p pattern {631/31}
 Group   4 Type H   : 4s contracted to 2s pattern {31}

Atom   0N    basis set group =>   1
Atom   1C    basis set group =>   2
Atom   2C    basis set group =>   2
Atom   3C    basis set group =>   2
Atom   4O    basis set group =>   3
Atom   5O    basis set group =>   3
Atom   6O    basis set group =>   3
Atom   7H    basis set group =>   4
Atom   8H    basis set group =>   4
Atom   9H    basis set group =>   4
Atom  10H    basis set group =>   4
Atom  11H    basis set group =>   4
Atom  12H    basis set group =>   4
Atom  13H    basis set group =>   4

-------------------------
BASIS SET IN INPUT FORMAT
-------------------------

 # Basis set for element : H 
 NewGTO H 
 S 3 
   1      18.7311370000      0.0334945995
   2       2.8253937000      0.2347269467
   3       0.6401217000      0.8137573184
 S 1 
   1       0.1612778000      1.0000000000
  end;

 # Basis set for element : C 
 NewGTO C 
 S 6 
   1    3047.5249000000      0.0018347002
   2     457.3695100000      0.0140373012
   3     103.9486900000      0.0688426061
   4      29.2101550000      0.2321844206
   5       9.2866630000      0.4679413416
   6       3.1639270000      0.3623120322
 S 3 
   1       7.8682724000     -0.1193324086
   2       1.8812885000     -0.1608542116
   3       0.5442493000      1.1434564826
 P 3 
   1       7.8682724000      0.0689990956
   2       1.8812885000      0.3164239798
   3       0.5442493000      0.7443082524
 S 1 
   1       0.1687144000      1.0000000000
 P 1 
   1       0.1687144000      1.0000000000
  end;

 # Basis set for element : N 
 NewGTO N 
 S 6 
   1    4173.5110000000      0.0018347994
   2     627.4579000000      0.0139949958
   3     142.9021000000      0.0685869792
   4      40.2343300000      0.2322409295
   5      12.8202100000      0.4690698576
   6       4.3904370000      0.3604548906
 S 3 
   1      11.6263580000     -0.1149610229
   2       2.7162800000     -0.1691180337
   3       0.7722180000      1.1458522281
 P 3 
   1      11.6263580000      0.0675800232
   2       2.7162800000      0.3239071114
   3       0.7722180000      0.7408952549
 S 1 
   1       0.2120313000      1.0000000000
 P 1 
   1       0.2120313000      1.0000000000
  end;

 # Basis set for element : O 
 NewGTO O 
 S 6 
   1    5484.6717000000      0.0018310998
   2     825.2349500000      0.0139500985
   3     188.0469600000      0.0684450927
   4      52.9645000000      0.2327142753
   5      16.8975700000      0.4701929501
   6       5.7996353000      0.3585208619
 S 3 
   1      15.5396160000     -0.1107775038
   2       3.5999336000     -0.1480263051
   3       1.0137618000      1.1307670390
 P 3 
   1      15.5396160000      0.0708742995
   2       3.5999336000      0.3397527978
   3       1.0137618000      0.7271585953
 S 1 
   1       0.2700058000      1.0000000000
 P 1 
   1       0.2700058000      1.0000000000
  end;



           ************************************************************
           *        Program running with 8 parallel MPI-processes     *
           *              working on a common directory               *
           ************************************************************
------------------------------------------------------------------------------
                           ORCA GTO INTEGRAL CALCULATION
------------------------------------------------------------------------------

                         BASIS SET STATISTICS AND STARTUP INFO

 # of primitive gaussian shells          ...  126
 # of primitive gaussian functions       ...  182
 # of contracted shells                  ...   49
 # of contracted basis functions         ...   77
 Highest angular momentum                ...    1
 Maximum contraction depth               ...    6
 Integral package used                   ... LIBINT
 Integral threshhold            Thresh   ...  1.000e-10
 Primitive cut-off              TCut     ...  1.000e-11


------------------------------ INTEGRAL EVALUATION ----------------------------


 * One electron integrals 
 Pre-screening matrix                    ... done
 Shell pair data                         ... done (   0.000 sec)



           ************************************************************
           *        Program running with 8 parallel MPI-processes     *
           *              working on a common directory               *
           ************************************************************
-------------------------------------------------------------------------------
                                 ORCA SCF
-------------------------------------------------------------------------------

------------
SCF SETTINGS
------------
Hamiltonian:
 Density Functional     Method          .... DFT(GTOs)
 Exchange Functional    Exchange        .... B88
   X-Alpha parameter    XAlpha          ....  0.666667
   Becke's b parameter  XBeta           ....  0.004200
 Correlation Functional Correlation     .... LYP
 LDA part of GGA corr.  LDAOpt          .... VWN-5
 Gradients option       PostSCFGGA      .... off
 Hybrid DFT is turned on
   Fraction HF Exchange ScalHFX         ....  0.200000
   Scaling of DF-GGA-X  ScalDFX         ....  0.720000
   Scaling of DF-GGA-C  ScalDFC         ....  0.810000
   Scaling of DF-LDA-C  ScalLDAC        ....  1.000000
   Perturbative correction              ....  0.000000
   NL short-range parameter             ....  4.800000


General Settings:
 Integral files         IntName         .... orca_orbitals
 Hartree-Fock type      HFTyp           .... RHF
 Total Charge           Charge          ....    0
 Multiplicity           Mult            ....    1
 Number of Electrons    NEL             ....   56
 Basis Dimension        Dim             ....   77
 Nuclear Repulsion      ENuc            ....    326.8104112484 Eh

Convergence Acceleration:
 DIIS                   CNVDIIS         .... on
   Start iteration      DIISMaxIt       ....    12
   Startup error        DIISStart       ....  0.200000
   # of expansion vecs  DIISMaxEq       ....     5
   Bias factor          DIISBfac        ....   1.050
   Max. coefficient     DIISMaxC        ....  10.000
 Newton-Raphson         CNVNR           .... off
 SOSCF                  CNVSOSCF        .... on
   Start iteration      SOSCFMaxIt      ....   150
   Startup grad/error   SOSCFStart      ....  0.003300
 Level Shifting         CNVShift        .... on
   Level shift para.    LevelShift      ....    0.2500
   Turn off err/grad.   ShiftErr        ....    0.0010
 Zerner damping         CNVZerner       .... off
 Static damping         CNVDamp         .... on
   Fraction old density DampFac         ....    0.7000
   Max. Damping (<1)    DampMax         ....    0.9800
   Min. Damping (>=0)   DampMin         ....    0.0000
   Turn off err/grad.   DampErr         ....    0.1000
 Fernandez-Rico         CNVRico         .... off

SCF Procedure:
 Maximum # iterations   MaxIter         ....   125
 SCF integral mode      SCFMode         .... Direct
   Integral package                     .... LIBINT
 Reset frequeny         DirectResetFreq ....    20
 Integral Threshold     Thresh          ....  1.000e-10 Eh
 Primitive CutOff       TCut            ....  1.000e-11 Eh

Convergence Tolerance:
 Convergence Check Mode ConvCheckMode   .... Total+1el-Energy
 Convergence forced     ConvForced      .... 0
 Energy Change          TolE            ....  1.000e-06 Eh
 1-El. energy change                    ....  1.000e-03 Eh
 Orbital Gradient       TolG            ....  5.000e-05
 Orbital Rotation angle TolX            ....  5.000e-05
 DIIS Error             TolErr          ....  1.000e-06


Diagonalization of the overlap matrix:
Smallest eigenvalue                        ... 4.843e-03
Time for diagonalization                   ...    0.001 sec
Threshold for overlap eigenvalues          ... 1.000e-08
Number of eigenvalues below threshold      ... 0
Time for construction of square roots      ...    0.001 sec
Total time needed                          ...    0.002 sec

-------------------
DFT GRID GENERATION
-------------------

General Integration Accuracy     IntAcc      ...  4.340
Radial Grid Type                 RadialGrid  ... Gauss-Chebyshev
Angular Grid (max. acc.)         AngularGrid ... Lebedev-110
Angular grid pruning method      GridPruning ... 3 (G Style)
Weight generation scheme         WeightScheme... Becke
Basis function cutoff            BFCut       ...    1.0000e-10
Integration weight cutoff        WCut        ...    1.0000e-14
Grids for H and He will be reduced by one unit

# of grid points (after initial pruning)     ...  17376 (   0.0 sec)
# of grid points (after weights+screening)   ...  16226 (   0.0 sec)
nearest neighbour list constructed           ...    0.0 sec
Grid point re-assignment to atoms done       ...    0.0 sec
Grid point division into batches done        ...    0.0 sec
Reduced shell lists constructed in    0.0 sec

Total number of grid points                  ...    16226
Total number of batches                      ...      261
Average number of points per batch           ...       62
Average number of grid points per atom       ...     1159
Average number of shells per batch           ...    41.32 (84.33%)
Average number of basis functions per batch  ...    66.91 (86.90%)
Average number of large shells per batch     ...    36.38 (88.04%)
Average number of large basis fcns per batch ...    59.56 (89.01%)
Maximum spatial batch extension              ...   2.32,  2.76,  2.88 au
Average spatial batch extension              ...   0.18,  0.19,  0.20 au

Time for grid setup =    0.053 sec

------------------------------
INITIAL GUESS: MODEL POTENTIAL
------------------------------
Loading Hartree-Fock densities                     ... done
Calculating cut-offs                               ... done
Setting up the integral package                    ... done
Initializing the effective Hamiltonian             ... done
Starting the Coulomb interaction                   ... done (   0.0 sec)
Reading the grid                                   ... done
Mapping shells                                     ... done
Starting the XC term evaluation                    ... done (   0.0 sec)
  promolecular density results
     # of electrons  =     55.989158990
     EX              =    -48.653844154
     EC              =     -1.940663676
     EX+EC           =    -50.594507830
Transforming the Hamiltonian                       ... done (   0.0 sec)
Diagonalizing the Hamiltonian                      ... done (   0.0 sec)
Back transforming the eigenvectors                 ... done (   0.0 sec)
Now organizing SCF variables                       ... done
                      ------------------
                      INITIAL GUESS DONE (   0.2 sec)
                      ------------------
--------------
SCF ITERATIONS
--------------
ITER       Energy         Delta-E        Max-DP      RMS-DP      [F,P]     Damp
               ***  Starting incremental Fock matrix formation  ***
  0   -398.2896508657   0.000000000000 0.17784470  0.00712332  0.2780250 0.7000
  1   -398.4333964117  -0.143745546032 0.12259937  0.00469379  0.1092938 0.7000
                               ***Turning on DIIS***
  2   -398.4819029776  -0.048506565893 0.14249460  0.00656718  0.0310737 0.0000
  3   -398.5677409688  -0.085837991213 0.08395728  0.00300473  0.0626795 0.0000
  4   -398.5830691927  -0.015328223918 0.01612260  0.00093218  0.0119440 0.0000
                      *** Initiating the SOSCF procedure ***
                           *** Shutting down DIIS ***
                      *** Re-Reading the Fockian *** 
                      *** Removing any level shift *** 
ITER      Energy       Delta-E        Grad      Rot      Max-DP    RMS-DP
  5   -398.58411700  -0.0010478073  0.001183  0.001183  0.006115  0.000325
               *** Restarting incremental Fock matrix formation ***
  6   -398.58416726  -0.0000502629  0.000534  0.002058  0.004528  0.000205
  7   -398.58416960  -0.0000023403  0.000597  0.000954  0.001457  0.000089
  8   -398.58417536  -0.0000057608  0.000342  0.000563  0.001318  0.000066
  9   -398.58417532   0.0000000474  0.000294  0.000193  0.000519  0.000026
 10   -398.58417683  -0.0000015164  0.000039  0.000168  0.000446  0.000019
                 **** Energy Check signals convergence ****
              ***Rediagonalizing the Fockian in SOSCF/NRSCF***

               *****************************************************
               *                     SUCCESS                       *
               *           SCF CONVERGED AFTER  11 CYCLES          *
               *****************************************************

Setting up the final grid:

General Integration Accuracy     IntAcc      ...  4.670
Radial Grid Type                 RadialGrid  ... Gauss-Chebyshev
Angular Grid (max. acc.)         AngularGrid ... Lebedev-302
Angular grid pruning method      GridPruning ... 3 (G Style)
Weight generation scheme         WeightScheme... Becke
Basis function cutoff            BFCut       ...    1.0000e-10
Integration weight cutoff        WCut        ...    1.0000e-14
Grids for H and He will be reduced by one unit

# of grid points (after initial pruning)     ...  67242 (   0.0 sec)
# of grid points (after weights+screening)   ...  61807 (   0.0 sec)
nearest neighbour list constructed           ...    0.0 sec
Grid point re-assignment to atoms done       ...    0.0 sec
Grid point division into batches done        ...    0.2 sec
Reduced shell lists constructed in    0.3 sec

Total number of grid points                  ...    61807
Total number of batches                      ...      974
Average number of points per batch           ...       63
Average number of grid points per atom       ...     4415
Average number of shells per batch           ...    41.27 (84.22%)
Average number of basis functions per batch  ...    67.07 (87.11%)
Average number of large shells per batch     ...    35.13 (85.13%)
Average number of large basis fcns per batch ...    57.94 (86.39%)
Maximum spatial batch extension              ...   4.43,  3.13,  4.70 au
Average spatial batch extension              ...   0.12,  0.13,  0.13 au

Final grid set up in    0.4 sec
Final integration                            ... done (   0.1 sec)
Change in XC energy                          ...    -0.000793409
Integrated number of electrons               ...    55.999919387
Previous integrated no of electrons          ...    55.995161438

----------------
TOTAL SCF ENERGY
----------------

Total Energy       :         -398.58497029 Eh          -10846.04844 eV

Components:
Nuclear Repulsion  :          326.81041125 Eh            8892.96340 eV
Electronic Energy  :         -725.39538153 Eh          -19739.01184 eV
One Electron Energy:        -1192.60002114 Eh          -32452.29642 eV
Two Electron Energy:          467.20463960 Eh           12713.28457 eV

Virial components:
Potential Energy   :         -795.30336145 Eh          -21641.30469 eV
Kinetic Energy     :          396.71839116 Eh           10795.25624 eV
Virial Ratio       :            2.00470505


DFT components:
N(Alpha)           :       27.999959693611 electrons
N(Beta)            :       27.999959693611 electrons
N(Total)           :       55.999919387222 electrons
E(X)               :      -39.239569609790 Eh       
E(C)               :       -2.286800953777 Eh       
E(XC)              :      -41.526370563567 Eh       

---------------
SCF CONVERGENCE
---------------

  Last Energy change         ...   -4.4540e-08  Tolerance :   1.0000e-06
  Last MAX-Density change    ...    7.3215e-05  Tolerance :   1.0000e-05
  Last RMS-Density change    ...    4.4733e-06  Tolerance :   1.0000e-06
  Last Orbital Gradient      ...    1.9725e-05  Tolerance :   5.0000e-05
  Last Orbital Rotation      ...    2.6014e-05  Tolerance :   5.0000e-05

             **** THE GBW FILE WAS UPDATED (orca_orbitals.gbw) ****
             **** DENSITY FILE WAS UPDATED (orca_orbitals.scfp.tmp) ****
             **** ENERGY FILE WAS UPDATED (orca_orbitals.en.tmp) ****
----------------
ORBITAL ENERGIES
----------------

  NO   OCC          E(Eh)            E(eV) 
   0   2.0000     -19.127484      -520.4853 
   1   2.0000     -19.106285      -519.9084 
   2   2.0000     -19.098750      -519.7034 
   3   2.0000     -14.457726      -393.4147 
   4   2.0000     -10.287731      -279.9434 
   5   2.0000     -10.252476      -278.9840 
   6   2.0000     -10.250432      -278.9284 
   7   2.0000      -1.069002       -29.0890 
   8   2.0000      -1.014165       -27.5968 
   9   2.0000      -1.012600       -27.5543 
  10   2.0000      -0.975346       -26.5405 
  11   2.0000      -0.766395       -20.8547 
  12   2.0000      -0.662967       -18.0403 
  13   2.0000      -0.611398       -16.6370 
  14   2.0000      -0.578307       -15.7365 
  15   2.0000      -0.529302       -14.4030 
  16   2.0000      -0.511095       -13.9076 
  17   2.0000      -0.498327       -13.5602 
  18   2.0000      -0.438758       -11.9392 
  19   2.0000      -0.430646       -11.7185 
  20   2.0000      -0.410634       -11.1739 
  21   2.0000      -0.400670       -10.9028 
  22   2.0000      -0.386434       -10.5154 
  23   2.0000      -0.323131        -8.7929 
  24   2.0000      -0.264532        -7.1983 
  25   2.0000      -0.257674        -7.0117 
  26   2.0000      -0.255451        -6.9512 
  27   2.0000      -0.230134        -6.2623 
  28   0.0000       0.000163         0.0044 
  29   0.0000       0.041231         1.1220 
  30   0.0000       0.062937         1.7126 
  31   0.0000       0.094900         2.5824 
  32   0.0000       0.101607         2.7649 
  33   0.0000       0.124832         3.3968 
  34   0.0000       0.137031         3.7288 
  35   0.0000       0.143871         3.9149 
  36   0.0000       0.165850         4.5130 
  37   0.0000       0.220011         5.9868 
  38   0.0000       0.239472         6.5164 
  39   0.0000       0.247107         6.7241 
  40   0.0000       0.346251         9.4220 
  41   0.0000       0.443680        12.0732 
  42   0.0000       0.518333        14.1046 
  43   0.0000       0.545517        14.8443 
  44   0.0000       0.561173        15.2703 
  45   0.0000       0.590300        16.0629 
  46   0.0000       0.629755        17.1365 
  47   0.0000       0.650002        17.6874 
  48   0.0000       0.669585        18.2203 
  49   0.0000       0.700348        19.0574 
  50   0.0000       0.719828        19.5875 
  51   0.0000       0.755998        20.5718 
  52   0.0000       0.788911        21.4674 
  53   0.0000       0.795949        21.6589 
  54   0.0000       0.808635        22.0041 
  55   0.0000       0.825302        22.4576 
  56   0.0000       0.835921        22.7466 
  57   0.0000       0.864117        23.5138 
  58   0.0000       0.878737        23.9116 
  59   0.0000       0.883114        24.0308 
  60   0.0000       0.909238        24.7416 
  61   0.0000       0.967914        26.3383 
  62   0.0000       0.983819        26.7711 
  63   0.0000       1.008350        27.4386 
  64   0.0000       1.044700        28.4277 
  65   0.0000       1.085846        29.5474 
  66   0.0000       1.110598        30.2209 
  67   0.0000       1.170330        31.8463 
  68   0.0000       1.181046        32.1379 
  69   0.0000       1.271567        34.6011 
  70   0.0000       1.363402        37.1001 
  71   0.0000       1.384429        37.6722 
  72   0.0000       1.456879        39.6437 
  73   0.0000       1.718162        46.7536 
  74   0.0000       1.798496        48.9396 
  75   0.0000       1.898264        51.6544 
  76   0.0000       2.027773        55.1785 
------------------
MOLECULAR ORBITALS
------------------
                      0         1         2         3         4         5   
                 -19.12748 -19.10628 -19.09875 -14.45773 -10.28773 -10.25248
                   2.00000   2.00000   2.00000   2.00000   2.00000   2.00000
                  --------  --------  --------  --------  --------  --------
  0N   1s        -0.000034 -0.000018  0.000018  0.995306  0.000055 -0.000031
  0N   2s        -0.000365 -0.000346  0.000270  0.033001  0.000717 -0.001039
  0N   1pz       -0.000067 -0.000087  0.000096  0.000008  0.000027 -0.000272
  0N   1px       -0.000100 -0.000013  0.000033  0.000272  0.000106 -0.000286
  0N   1py       -0.000034 -0.000131  0.000163 -0.000307  0.000156 -0.000232
  0N   3s         0.001598  0.001827  0.000543 -0.025843 -0.001762  0.008176
  0N   2pz        0.000703  0.001267  0.000085 -0.001922  0.000012  0.002401
  0N   2px        0.001032  0.001303  0.000452 -0.001801 -0.000895  0.003090
  0N   2py        0.000416  0.000260 -0.000923 -0.001590 -0.000956  0.002495
  1C   1s         0.000018  0.000010  0.000023 -0.000122 -0.000816  0.995146
  1C   2s        -0.000231 -0.000170  0.000484 -0.001662  0.000476  0.039458
  1C   1pz       -0.000193 -0.000109 -0.000042  0.000068  0.000027 -0.000606
  1C   1px       -0.000434  0.000056 -0.000084 -0.000043 -0.000163 -0.000266
  1C   1py       -0.000123 -0.000185  0.000129 -0.000104  0.000312 -0.000289
  1C   3s        -0.002185 -0.001408 -0.001751  0.010755 -0.003188 -0.043630
  1C   2pz        0.001557  0.003188  0.001908 -0.004312 -0.001407  0.004178
  1C   2px        0.000162  0.002648  0.002027 -0.002498  0.003119 -0.000061
  1C   2py        0.000799  0.000917 -0.000007 -0.001344 -0.003778 -0.003120
  2C   1s         0.000033  0.000163 -0.000250 -0.000013 -0.995086 -0.000842
  2C   2s         0.000338 -0.000081 -0.000225 -0.000477 -0.034809 -0.001435
  2C   1pz       -0.000098 -0.000098  0.000024  0.000130  0.000011 -0.000012
  2C   1px        0.000046 -0.000066  0.000114  0.000052 -0.000152  0.000086
  2C   1py       -0.000100 -0.000051  0.000021  0.000203 -0.000200 -0.000060
  2C   3s        -0.001527  0.009006 -0.009653 -0.002922  0.016249  0.010344
  2C   2pz       -0.000702 -0.007693 -0.007812  0.000637 -0.000357 -0.001729
  2C   2px       -0.001233 -0.010054 -0.007948  0.000360  0.002604  0.001782
  2C   2py       -0.000315 -0.001282 -0.008026  0.000400 -0.006621 -0.006575
  3C   1s        -0.000107 -0.000026 -0.000034  0.000023  0.000541  0.032134
  3C   2s        -0.001363 -0.000220 -0.000239 -0.000134  0.001206 -0.000350
  3C   1pz        0.000317 -0.000057  0.000107 -0.000000  0.000029 -0.000072
  3C   1px        0.000284  0.000006  0.000103  0.000219 -0.000322  0.000168
  3C   1py        0.000128 -0.000146 -0.000113  0.000070  0.000318 -0.000019
  3C   3s         0.009339 -0.000030  0.000124 -0.001558 -0.004070  0.010074
  3C   2pz        0.003119 -0.000846 -0.000884  0.000191 -0.000898 -0.000393
  3C   2px        0.001123 -0.000073 -0.000534  0.000988  0.002377 -0.005985
  3C   2py        0.002134  0.001135  0.001501 -0.000278 -0.001879  0.000627
  4O   1s         0.995116 -0.000066  0.000007 -0.000011 -0.000019 -0.000012
  4O   2s         0.029286  0.000046 -0.000088 -0.000247 -0.000246 -0.000379
  4O   1pz       -0.001218  0.000027 -0.000029  0.000007  0.000011  0.000090
  4O   1px       -0.001620  0.000011 -0.000076  0.000095  0.000001  0.000085
  4O   1py        0.000737 -0.000011  0.000015  0.000016  0.000028  0.000086
  4O   3s        -0.017929 -0.000197  0.000469  0.000587  0.001269  0.000532
  4O   2pz        0.003209 -0.000069  0.000161 -0.000095 -0.000441 -0.000233
  4O   2px        0.003431  0.000077  0.000187 -0.000599 -0.000631 -0.000023
  4O   2py       -0.000453 -0.000140 -0.000069 -0.000011 -0.000063 -0.000364
  5O   1s         0.000074  0.995144 -0.005284 -0.000013  0.000064 -0.000008
  5O   2s         0.000066  0.030199  0.000559 -0.000351  0.000109 -0.000216
  5O   1pz        0.000009  0.001097  0.000056 -0.000055  0.000242 -0.000097
  5O   1px       -0.000039  0.001862  0.000071 -0.000154  0.000442 -0.000075
  5O   1py       -0.000008 -0.000714 -0.000133  0.000072 -0.000134 -0.000045
  5O   3s        -0.000510 -0.023806 -0.004148  0.001113  0.000377 -0.000747
  5O   2pz       -0.000097 -0.003667 -0.000126  0.000632  0.001356  0.000356
  5O   2px        0.000056 -0.005775 -0.000670  0.001035  0.001175 -0.000105
  5O   2py        0.000098  0.001499  0.001827  0.000019  0.001177  0.000633
  6O   1s         0.000012 -0.005347 -0.995152 -0.000013  0.000148 -0.000021
  6O   2s         0.000031 -0.000927 -0.030480 -0.000251  0.000109 -0.000468
  6O   1pz        0.000030  0.000013  0.001335  0.000006 -0.000214 -0.000009
  6O   1px        0.000107 -0.000004  0.001095  0.000009 -0.000177  0.000104
  6O   1py        0.000017  0.000160  0.001744  0.000037 -0.000427  0.000059
  6O   3s         0.000743  0.004606  0.025443  0.000803  0.001029  0.001213
  6O   2pz       -0.000364  0.000029 -0.004082 -0.000257 -0.001542 -0.000061
  6O   2px       -0.000722  0.000608 -0.003455 -0.000181 -0.001990 -0.000819
  6O   2py       -0.000213 -0.001806 -0.005278 -0.000388 -0.000213  0.000137
  7H   1s        -0.000050  0.000407  0.000206  0.000606  0.000135 -0.000259
  7H   2s         0.000159  0.001252  0.000152  0.003185  0.000181  0.000535
  8H   1s        -0.000266  0.000017  0.000032  0.000214  0.000294 -0.000359
  8H   2s         0.000492  0.000037 -0.000242  0.003470  0.000221  0.000181
  9H   1s        -0.000070 -0.000051 -0.000078  0.000195 -0.000016 -0.000170
  9H   2s         0.000191  0.000138 -0.000221  0.003139 -0.000408  0.001060
 10H   1s        -0.000111 -0.000099 -0.000189 -0.000386  0.000352 -0.000068
 10H   2s        -0.000264 -0.000702  0.000140 -0.000100 -0.000496  0.005181
 11H   1s        -0.000657 -0.000078 -0.000331  0.000152  0.000561 -0.000579
 11H   2s        -0.000758 -0.000842 -0.000382 -0.000086 -0.000151 -0.000349
 12H   1s        -0.000479  0.000092  0.000184  0.000051  0.000022 -0.000350
 12H   2s        -0.000385  0.000587  0.000700 -0.000334 -0.001272  0.000556
 13H   1s         0.000577  0.000032  0.000158 -0.000203 -0.000140 -0.000097
 13H   2s         0.002946  0.000318 -0.000685  0.000213  0.000279  0.000296
                      6         7         8         9        10        11   
                 -10.25043  -1.06900  -1.01417  -1.01260  -0.97535  -0.76639
                   2.00000   2.00000   2.00000   2.00000   2.00000   2.00000
                  --------  --------  --------  --------  --------  --------
  0N   1s        -0.000017 -0.056497 -0.145185 -0.085130 -0.091616  0.050144
  0N   2s        -0.000358  0.117519  0.299395  0.174063  0.192428 -0.106536
  0N   1pz       -0.000127  0.007243  0.002437 -0.000969 -0.004338  0.111100
  0N   1px       -0.000128  0.005340  0.017668  0.001811  0.014885  0.096238
  0N   1py       -0.000088  0.009843 -0.016055 -0.005849 -0.030892  0.100216
  0N   3s         0.000193  0.120393  0.345809  0.204593  0.228780 -0.169776
  0N   2pz        0.000663  0.000984  0.006981  0.005678  0.002091  0.042958
  0N   2px       -0.000087 -0.000780  0.007784  0.005525  0.011582  0.038762
  0N   2py        0.000409  0.002897  0.006663  0.008577 -0.015330  0.038237
  1C   1s        -0.032206 -0.040938 -0.053314 -0.010250 -0.023449 -0.150879
  1C   2s        -0.002277  0.074556  0.104649  0.019652  0.046701  0.288830
  1C   1pz        0.000215 -0.015430 -0.044459 -0.030910 -0.021806 -0.006497
  1C   1px       -0.000469 -0.019199 -0.016193 -0.047658 -0.013747  0.054184
  1C   1py        0.000026  0.016716 -0.035623 -0.019345 -0.023674  0.005285
  1C   3s         0.007989  0.044450  0.033365 -0.004147  0.007510  0.295931
  1C   2pz       -0.001203 -0.002218  0.011296  0.003262  0.021152 -0.014958
  1C   2px        0.005597 -0.001472  0.004181  0.001050  0.018592 -0.002581
  1C   2py       -0.000708  0.007206  0.004886  0.001792  0.002977  0.001412
  2C   1s         0.000361 -0.134338  0.045448  0.001852  0.010451 -0.020873
  2C   2s        -0.000821  0.273397 -0.093995 -0.002250 -0.019012  0.046985
  2C   1pz       -0.000013  0.003555 -0.057927 -0.068544  0.158061 -0.006832
  2C   1px       -0.000221 -0.019717 -0.044064 -0.079869  0.192133  0.042249
  2C   1py        0.000166  0.069381 -0.083015 -0.042896  0.071534 -0.100771
  2C   3s         0.001857  0.024693 -0.008162 -0.001883  0.001379  0.020843
  2C   2pz        0.000767 -0.002535  0.009655  0.005735 -0.033145  0.004734
  2C   2px        0.001560  0.008477  0.009986  0.006107 -0.040727  0.007718
  2C   2py       -0.000868 -0.028631  0.016969  0.002626 -0.016697 -0.003803
  3C   1s         0.994868 -0.018162 -0.052789  0.065806  0.009606 -0.104243
  3C   2s         0.036992  0.035213  0.104603 -0.128304 -0.022535  0.207574
  3C   1pz        0.000263  0.011466  0.043484 -0.075919 -0.020156 -0.023613
  3C   1px       -0.000145 -0.005439  0.009254 -0.044043 -0.021486 -0.101850
  3C   1py        0.000192  0.007775  0.019443 -0.040891 -0.012491 -0.025051
  3C   3s        -0.032830  0.010749  0.043421 -0.046955 -0.003753  0.181900
  3C   2pz       -0.000706 -0.000213 -0.011790  0.011746 -0.005442 -0.003871
  3C   2px        0.002909 -0.001793 -0.010299  0.009926 -0.003671 -0.012874
  3C   2py       -0.000060 -0.000955 -0.007784 -0.001045  0.013185 -0.004847
  4O   1s         0.000017 -0.025521 -0.099397  0.164854  0.042687  0.062625
  4O   2s        -0.000498  0.055105  0.216377 -0.357091 -0.092847 -0.138918
  4O   1pz        0.000358 -0.010335 -0.039377  0.061276  0.015636 -0.033980
  4O   1px        0.000157 -0.015534 -0.049949  0.081072  0.018121 -0.006690
  4O   1py        0.000247  0.005770  0.017355 -0.035192 -0.007788 -0.066947
  4O   3s         0.003798  0.056203  0.229603 -0.380335 -0.103375 -0.181875
  4O   2pz       -0.000868 -0.005402 -0.023712  0.036579  0.008201 -0.004387
  4O   2px       -0.000554 -0.007460 -0.025764  0.048586  0.011250  0.003383
  4O   2py       -0.000795  0.003826  0.009103 -0.016714 -0.006995 -0.025621
  5O   1s        -0.000010 -0.118992  0.002741 -0.055361  0.146859  0.024504
  5O   2s        -0.000120  0.256467 -0.006877  0.120534 -0.318323 -0.055863
  5O   1pz       -0.000077  0.060582 -0.011638  0.019186 -0.061277 -0.002912
  5O   1px        0.000063  0.095362 -0.007416  0.036527 -0.098955  0.001714
  5O   1py       -0.000032 -0.020581 -0.016303 -0.020141  0.029411 -0.011961
  5O   3s         0.000834  0.259102 -0.002492  0.119822 -0.343471 -0.061562
  5O   2pz        0.000411  0.024267 -0.006029  0.004515 -0.022163 -0.000782
  5O   2px       -0.000042  0.042102 -0.006050  0.012293 -0.041961  0.001035
  5O   2py        0.000133 -0.014521 -0.007296 -0.011559  0.024171 -0.002638
  6O   1s         0.000009 -0.121013  0.089651  0.056002 -0.111422  0.024798
  6O   2s         0.000084  0.263620 -0.196706 -0.120546  0.244156 -0.055066
  6O   1pz        0.000104 -0.071200  0.048563  0.025427 -0.050109  0.007204
  6O   1px       -0.000050 -0.062594  0.044792  0.016038 -0.037835  0.015362
  6O   1py        0.000029 -0.083920  0.057043  0.038617 -0.074690 -0.010098
  6O   3s        -0.000996  0.253781 -0.191737 -0.118540  0.247555 -0.068463
  6O   2pz       -0.000232 -0.027873  0.017511  0.006001 -0.014713  0.002406
  6O   2px       -0.000025 -0.022345  0.015599 -0.002193 -0.008556  0.004070
  6O   2py        0.000381 -0.031716  0.021659  0.015037 -0.026582 -0.001609
  7H   1s        -0.000051  0.036214  0.056291  0.042430  0.012881 -0.037908
  7H   2s         0.000154 -0.004753 -0.007668 -0.002799 -0.010178 -0.008416
  8H   1s        -0.000073  0.030092  0.089333  0.049769  0.062421 -0.065747
  8H   2s         0.000667 -0.002943 -0.004500  0.002317 -0.001346 -0.010048
  9H   1s         0.000017  0.028847  0.087774  0.051423  0.062352 -0.079453
  9H   2s        -0.000133 -0.002370 -0.000635  0.001449 -0.001547 -0.016225
 10H   1s        -0.000218  0.012619  0.019457  0.001095  0.008648  0.090955
 10H   2s         0.000410  0.000747 -0.000175 -0.002468 -0.001845  0.014166
 11H   1s        -0.000353  0.006255  0.017940 -0.021332 -0.004279  0.061997
 11H   2s         0.005632  0.003118  0.000687  0.002426 -0.005777  0.007736
 12H   1s        -0.000380  0.005260  0.018358 -0.021965 -0.002422  0.062256
 12H   2s         0.005520  0.001086  0.001879 -0.005356  0.006966  0.008144
 13H   1s         0.000088  0.018611  0.053330 -0.096398 -0.020000 -0.065877
 13H   2s         0.000935 -0.003069 -0.007843  0.006422  0.009110 -0.012244
                     12        13        14        15        16        17   
                  -0.66297  -0.61140  -0.57831  -0.52930  -0.51110  -0.49833
                   2.00000   2.00000   2.00000   2.00000   2.00000   2.00000
                  --------  --------  --------  --------  --------  --------
  0N   1s         0.006853  0.003915 -0.014391 -0.016403  0.003640 -0.014736
  0N   2s        -0.016844 -0.004329  0.026154  0.034808 -0.008053  0.033529
  0N   1pz        0.202850  0.283912  0.069330  0.252098 -0.177149  0.071950
  0N   1px       -0.036988 -0.209693 -0.324982  0.208843 -0.022936  0.115090
  0N   1py        0.110635 -0.299728  0.270117  0.190445  0.074626  0.026254
  0N   3s        -0.018655 -0.035345  0.078880  0.088810 -0.018520  0.073347
  0N   2pz        0.103832  0.148987  0.035608  0.167138 -0.107108  0.042223
  0N   2px       -0.027437 -0.109838 -0.199948  0.144383 -0.024619  0.055769
  0N   2py        0.061681 -0.171972  0.176441  0.116288  0.038820  0.019921
  1C   1s        -0.077946  0.002124  0.036909  0.006530 -0.021326  0.023695
  1C   2s         0.150290 -0.004278 -0.069426 -0.006598  0.039847 -0.044997
  1C   1pz        0.043297  0.107474 -0.033928 -0.174999  0.206494 -0.076422
  1C   1px       -0.156586  0.001168 -0.061454 -0.100651  0.013965 -0.201876
  1C   1py        0.012860 -0.087310  0.083797 -0.250099 -0.081930  0.071894
  1C   3s         0.192628  0.000176 -0.117913 -0.070397  0.090665 -0.082427
  1C   2pz        0.015380  0.022141 -0.003455 -0.027724  0.086031 -0.032679
  1C   2px       -0.024527 -0.014518 -0.013210 -0.004566  0.000130 -0.063558
  1C   2py        0.010192 -0.040519  0.020752 -0.080910 -0.043911  0.025936
  2C   1s        -0.022121  0.007129  0.014797  0.073055  0.021984 -0.094738
  2C   2s         0.045247 -0.012217 -0.043901 -0.162742 -0.049714  0.232543
  2C   1pz        0.012954  0.018796  0.023949 -0.004873  0.090791 -0.016811
  2C   1px        0.033312 -0.047426  0.070011 -0.078245 -0.020035 -0.057356
  2C   1py       -0.116684  0.052975 -0.049263  0.157805  0.016807 -0.018015
  2C   3s         0.030761 -0.009605 -0.016141 -0.141649 -0.050943  0.186900
  2C   2pz        0.002236  0.015080 -0.021442 -0.006351  0.026512 -0.016638
  2C   2px        0.002726 -0.002225 -0.010385 -0.043202 -0.027815 -0.017824
  2C   2py       -0.025706  0.017377 -0.034739  0.067036  0.007460 -0.057417
  3C   1s         0.128723 -0.029651 -0.042903  0.005719  0.019290  0.014155
  3C   2s        -0.258411  0.063024  0.085959 -0.010399 -0.031728 -0.021962
  3C   1pz        0.056027  0.030498 -0.028255 -0.034878  0.256751  0.046406
  3C   1px       -0.057339  0.044246  0.105004  0.064296  0.048334  0.215917
  3C   1py        0.038504 -0.039772  0.022551 -0.117179 -0.155373 -0.000587
  3C   3s        -0.284947  0.073556  0.115950 -0.018169 -0.059604 -0.037510
  3C   2pz        0.032745  0.016026 -0.010359 -0.021564  0.097014  0.015324
  3C   2px        0.013821  0.014325  0.021485  0.018181  0.027388  0.085075
  3C   2py        0.018851 -0.008706  0.016286 -0.050828 -0.075669 -0.014784
  4O   1s        -0.041274  0.009657  0.012493 -0.020358 -0.012912 -0.026036
  4O   2s         0.093276 -0.020024 -0.025347  0.047987  0.031500  0.061620
  4O   1pz        0.106936 -0.045734 -0.087798  0.023232 -0.057061 -0.136611
  4O   1px       -0.004367 -0.001583  0.012596  0.058212 -0.023323  0.078638
  4O   1py        0.121406 -0.071038 -0.075767 -0.011137 -0.243048 -0.186159
  4O   3s         0.126744 -0.041063 -0.055296  0.066313  0.035309  0.088433
  4O   2pz        0.044677 -0.014170 -0.037980  0.005150 -0.019824 -0.066264
  4O   2px       -0.007464  0.001319  0.011209  0.036049 -0.013488  0.048622
  4O   2py        0.054142 -0.029531 -0.036992 -0.010937 -0.124162 -0.092202
  5O   1s         0.027867 -0.015039  0.011261 -0.030710 -0.016844  0.072160
  5O   2s        -0.066062  0.036316 -0.030553  0.070561  0.037546 -0.156720
  5O   1pz       -0.003922  0.033196 -0.079032 -0.024419 -0.015957  0.148151
  5O   1px       -0.001775 -0.003462 -0.054471 -0.052242 -0.074852  0.171017
  5O   1py       -0.040626  0.035595 -0.098651  0.043712 -0.017067  0.017198
  5O   3s        -0.073883  0.043499 -0.032444  0.089575  0.056893 -0.272820
  5O   2pz       -0.000036  0.016530 -0.036537 -0.017384 -0.007975  0.068673
  5O   2px        0.000517 -0.004104 -0.022096 -0.027691 -0.034792  0.073051
  5O   2py       -0.018313  0.017287 -0.051727  0.011934 -0.010348  0.020120
  6O   1s         0.014169 -0.002585 -0.014980 -0.052651 -0.010625  0.047838
  6O   2s        -0.034936  0.008649  0.029663  0.122373  0.025462 -0.104933
  6O   1pz        0.016709  0.000844  0.006793  0.022328  0.034636 -0.074062
  6O   1px        0.022610 -0.023791  0.019966 -0.018619 -0.044510 -0.117596
  6O   1py       -0.022704  0.010954 -0.008690  0.108633 -0.001827 -0.062158
  6O   3s        -0.029405 -0.006105  0.074444  0.168930  0.033919 -0.154662
  6O   2pz        0.004195  0.003155 -0.002746  0.011133  0.018641 -0.039680
  6O   2px        0.007600 -0.007875  0.002876 -0.007665 -0.022804 -0.069512
  6O   2py       -0.011236  0.008136 -0.009871  0.049936 -0.001967 -0.020059
  7H   1s         0.020612 -0.056818  0.216758 -0.016059  0.062588 -0.074292
  7H   2s        -0.003278 -0.015081  0.087304  0.000488  0.048159 -0.103563
  8H   1s        -0.120828 -0.170656 -0.151322 -0.071862  0.076304  0.012585
  8H   2s        -0.044221 -0.072335 -0.067080 -0.040414  0.038230  0.004011
  9H   1s        -0.010951  0.247968 -0.023395 -0.092079 -0.080784 -0.016521
  9H   2s        -0.001301  0.104269 -0.008344 -0.051547 -0.045693 -0.014443
 10H   1s         0.081864  0.058127 -0.059332 -0.028489  0.141026 -0.063366
 10H   2s         0.029081  0.034384 -0.030409 -0.016162  0.082411 -0.036674
 11H   1s        -0.109686  0.005772  0.061055 -0.019021 -0.168290 -0.011899
 11H   2s        -0.034054 -0.005367  0.024135 -0.007650 -0.103023 -0.002529
 12H   1s        -0.121490  0.045745  0.045208  0.062699  0.048872  0.026791
 12H   2s        -0.040874  0.020175  0.018646  0.040139  0.025690  0.013602
 13H   1s         0.094435 -0.045582 -0.055260  0.002230 -0.117879 -0.124205
 13H   2s         0.026111 -0.019666 -0.015387  0.014549 -0.055158 -0.078845
                     18        19        20        21        22        23   
                  -0.43876  -0.43065  -0.41063  -0.40067  -0.38643  -0.32313
                   2.00000   2.00000   2.00000   2.00000   2.00000   2.00000
                  --------  --------  --------  --------  --------  --------
  0N   1s         0.010711 -0.004353 -0.014841 -0.004572  0.008401  0.015905
  0N   2s        -0.022671  0.004301  0.035243  0.004279 -0.014578 -0.027841
  0N   1pz       -0.099380 -0.014259 -0.032383 -0.060301 -0.064264 -0.044330
  0N   1px       -0.027946 -0.164018 -0.084877 -0.086669 -0.011918 -0.064366
  0N   1py        0.000281  0.066779  0.151441  0.047397  0.001936 -0.047156
  0N   3s        -0.066827  0.044253  0.065802  0.032985 -0.075036 -0.146512
  0N   2pz       -0.060533 -0.022752 -0.034862 -0.063229 -0.068982 -0.055891
  0N   2px       -0.030567 -0.120846 -0.083350 -0.100117 -0.013499 -0.070236
  0N   2py       -0.007274  0.055053  0.095893  0.056840  0.008763 -0.058276
  1C   1s         0.007383  0.004926 -0.010302 -0.004358 -0.009420 -0.037238
  1C   2s        -0.020913 -0.009558  0.016243  0.005206  0.014512  0.056686
  1C   1pz        0.169942 -0.076211  0.088208  0.049519  0.190655 -0.020824
  1C   1px       -0.141880  0.154503  0.053903  0.034633 -0.116535  0.111604
  1C   1py       -0.027153 -0.005191 -0.156211 -0.029143 -0.077833  0.053357
  1C   3s        -0.008681 -0.022722  0.063024  0.039650  0.054405  0.259164
  1C   2pz        0.068306 -0.041845  0.038840 -0.003098  0.070030 -0.125801
  1C   2px       -0.089209  0.101086  0.011956 -0.023928 -0.077810  0.048483
  1C   2py       -0.028363 -0.024980 -0.081366 -0.029210 -0.081538  0.073030
  2C   1s        -0.014267 -0.045295 -0.004530  0.015385  0.002367  0.012785
  2C   2s         0.029842  0.118308  0.040752 -0.037960 -0.007534 -0.025509
  2C   1pz        0.140196 -0.089639  0.126259 -0.212327 -0.245514 -0.007528
  2C   1px       -0.122238 -0.005661 -0.100157 -0.295364  0.164708 -0.018804
  2C   1py       -0.097809  0.137439  0.290008 -0.054309  0.097952 -0.025555
  2C   3s         0.032647  0.102946 -0.007455 -0.028571  0.022423 -0.062353
  2C   2pz        0.077569 -0.055601  0.044272 -0.015167 -0.142995 -0.001973
  2C   2px       -0.048522  0.006010 -0.062018 -0.041604  0.105421 -0.052071
  2C   2py       -0.053376 -0.001328  0.115948  0.028309  0.052953  0.039696
  3C   1s        -0.005039 -0.007506 -0.009526 -0.011792  0.018179  0.017662
  3C   2s        -0.000234  0.013279  0.020942  0.029494 -0.040855 -0.036908
  3C   1pz       -0.256363  0.002903 -0.038340  0.049506 -0.092538 -0.137124
  3C   1px        0.138910 -0.165062 -0.061115 -0.033913  0.148104 -0.162080
  3C   1py       -0.153128 -0.289138  0.203416  0.064452  0.004188  0.079353
  3C   3s         0.043693  0.004333  0.032144  0.032795 -0.052268 -0.064326
  3C   2pz       -0.106958  0.009918 -0.023437  0.025508 -0.023247 -0.008280
  3C   2px        0.054894 -0.051683 -0.021593 -0.024950  0.071687  0.020686
  3C   2py       -0.075551 -0.135434  0.095755  0.020380  0.027078 -0.025747
  4O   1s        -0.002941 -0.011404  0.007592  0.018092 -0.004243 -0.069639
  4O   2s         0.004046  0.023257 -0.020741 -0.038786  0.011062  0.159802
  4O   1pz        0.140417  0.252052 -0.064065 -0.050750 -0.027152  0.200042
  4O   1px        0.130898 -0.002503 -0.047534 -0.084769  0.112020  0.378498
  4O   1py        0.179823  0.070275  0.084175  0.006265  0.028356 -0.230673
  4O   3s         0.010706  0.050144 -0.002455 -0.081471  0.000534  0.256678
  4O   2pz        0.075883  0.145589 -0.033714 -0.035830 -0.013288  0.150693
  4O   2px        0.073743 -0.002886 -0.029527 -0.054892  0.073382  0.267459
  4O   2py        0.098680  0.039861  0.060817 -0.003886  0.017650 -0.155686
  5O   1s         0.012795  0.043967  0.011998  0.058437  0.001767  0.000028
  5O   2s        -0.029114 -0.091793 -0.017291 -0.121786 -0.002416  0.004188
  5O   1pz        0.124279  0.047285  0.115744  0.205676 -0.214928 -0.022803
  5O   1px       -0.039904  0.169826 -0.018027  0.270860  0.160570 -0.026573
  5O   1py       -0.067125  0.054560  0.157019 -0.019260  0.084425 -0.015125
  5O   3s        -0.043542 -0.186030 -0.075393 -0.238506 -0.013467 -0.027616
  5O   2pz        0.069712  0.020496  0.060162  0.103600 -0.132136 -0.025322
  5O   2px       -0.022707  0.083683 -0.024042  0.135623  0.092138 -0.024658
  5O   2py       -0.034494  0.043235  0.096104 -0.013470  0.052280 -0.010271
  6O   1s         0.000827  0.037525  0.047304 -0.067247  0.001451 -0.020542
  6O   2s        -0.003977 -0.082632 -0.094455  0.143352 -0.001484  0.050757
  6O   1pz        0.129298 -0.147450 -0.122262  0.171179 -0.233234  0.053424
  6O   1px       -0.047788 -0.082016 -0.279801  0.113002  0.139063 -0.078694
  6O   1py       -0.042477 -0.022742 -0.031850  0.307669  0.082552  0.134116
  6O   3s         0.006011 -0.132844 -0.225412  0.270002 -0.017491  0.075131
  6O   2pz        0.064561 -0.077086 -0.051171  0.083762 -0.128850  0.030844
  6O   2px       -0.030231 -0.048971 -0.135956  0.054021  0.078795 -0.064112
  6O   2py       -0.023327 -0.004299 -0.000425  0.156837  0.050678  0.083176
  7H   1s         0.012474  0.061647  0.062433  0.013859  0.007220  0.011184
  7H   2s         0.003116 -0.002045  0.012625 -0.077783  0.002182  0.020853
  8H   1s         0.053220 -0.061422 -0.014294  0.001557  0.034683 -0.008473
  8H   2s         0.060037 -0.038425 -0.015199 -0.000038  0.036534  0.005215
  9H   1s        -0.030581  0.013147 -0.062499 -0.012885 -0.021652  0.032126
  9H   2s        -0.018704  0.012155 -0.052432 -0.005586 -0.004235  0.031725
 10H   1s         0.112514 -0.062654  0.103739  0.041852  0.171852  0.007273
 10H   2s         0.088485 -0.046452  0.074039  0.033015  0.137023  0.052553
 11H   1s         0.098526 -0.110125  0.096136  0.008193  0.058823  0.078253
 11H   2s         0.076480 -0.081850  0.069308  0.009021  0.074727  0.114927
 12H   1s         0.147084  0.138489 -0.128449 -0.038801  0.023555 -0.125908
 12H   2s         0.110472  0.101452 -0.115184 -0.043851  0.036713 -0.157203
 13H   1s         0.099265  0.078392  0.003381  0.009862 -0.001502 -0.147879
 13H   2s         0.074068  0.032351 -0.056778  0.040633  0.008374 -0.075854
                     24        25        26        27        28        29   
                  -0.26453  -0.25767  -0.25545  -0.23013   0.00016   0.04123
                   2.00000   2.00000   2.00000   2.00000   0.00000   0.00000
                  --------  --------  --------  --------  --------  --------
  0N   1s         0.015848  0.025893 -0.006859 -0.011388 -0.113747 -0.020110
  0N   2s        -0.023742 -0.063907  0.014534  0.015533  0.206278  0.044455
  0N   1pz       -0.036477  0.031421  0.003640  0.020247 -0.066213 -0.194326
  0N   1px       -0.018121  0.110833 -0.038326 -0.000569  0.016183  0.155964
  0N   1py       -0.043616 -0.107936  0.021223  0.050190 -0.175382  0.096452
  0N   3s        -0.173704 -0.136403  0.046607  0.119129  1.502921  0.207398
  0N   2pz       -0.076018  0.057707 -0.028904  0.033712 -0.135623 -0.401732
  0N   2px       -0.040508  0.140103 -0.022504  0.001621  0.025485  0.299657
  0N   2py       -0.064930 -0.061065  0.036367  0.069658 -0.352205  0.229658
  1C   1s        -0.029636  0.029476 -0.011670  0.034416 -0.005722  0.021130
  1C   2s         0.058407 -0.049789  0.014035 -0.050181 -0.002524 -0.040811
  1C   1pz       -0.027264  0.018932 -0.011408  0.001892  0.127955 -0.075877
  1C   1px        0.142665  0.030581  0.004371  0.137680  0.064717  0.073936
  1C   1py       -0.011696 -0.136944  0.043007 -0.250147  0.021861  0.066722
  1C   3s         0.204262 -0.252922  0.132949 -0.296166  0.213291 -0.273170
  1C   2pz       -0.102479  0.037932 -0.029745 -0.000462  0.214514 -0.403967
  1C   2px        0.032637  0.036942  0.064194  0.152747  0.082183  0.283273
  1C   2py       -0.123316 -0.107581  0.052391 -0.255732  0.077870  0.082981
  2C   1s        -0.004113 -0.009038  0.002112 -0.000603  0.001525  0.000555
  2C   2s         0.007431  0.015166 -0.005401 -0.001171  0.013352 -0.016093
  2C   1pz        0.003129  0.010037  0.017503 -0.007390  0.038295 -0.237595
  2C   1px       -0.003291 -0.022001 -0.011278 -0.053509 -0.008859  0.172201
  2C   1py       -0.000841  0.050415 -0.024861  0.087211 -0.029209  0.078042
  2C   3s         0.034897 -0.020714  0.012500 -0.045727 -0.133922  0.096657
  2C   2pz        0.006460 -0.088463  0.047986  0.070931  0.025907 -0.181978
  2C   2px       -0.004994 -0.061797  0.027832  0.141039 -0.021168  0.158598
  2C   2py       -0.044768 -0.127991  0.039627 -0.122521 -0.005827  0.042062
  3C   1s        -0.000356 -0.004334  0.001695 -0.000286 -0.026335  0.023272
  3C   2s         0.004419  0.009920  0.019902 -0.000016  0.040486 -0.034116
  3C   1pz        0.092285 -0.012698  0.015615 -0.011591 -0.007295  0.006497
  3C   1px       -0.074783 -0.014286  0.006275 -0.065575  0.037415  0.120568
  3C   1py       -0.070373  0.045200 -0.015318  0.044384  0.008399  0.031012
  3C   3s         0.007761  0.024402 -0.097504  0.000760  0.275623 -0.350013
  3C   2pz        0.041896 -0.012474 -0.024781  0.001911  0.044952  0.166778
  3C   2px        0.027350 -0.043868  0.069634 -0.009615  0.190881  0.247762
  3C   2py        0.041995  0.000495 -0.037880  0.037156  0.002483  0.141275
  4O   1s         0.003464 -0.001438  0.003225 -0.006372  0.016466  0.015710
  4O   2s        -0.002307  0.000012 -0.009912  0.013381 -0.025908 -0.026270
  4O   1pz       -0.366340  0.047929 -0.081425 -0.020510  0.074210  0.022449
  4O   1px        0.348231 -0.131714  0.053060  0.149755  0.051216  0.002044
  4O   1py        0.285191 -0.002808  0.069937 -0.084583  0.016826  0.011472
  4O   3s        -0.044062  0.038360  0.005234  0.005454 -0.193759 -0.188668
  4O   2pz       -0.271850  0.034750 -0.065126 -0.015453  0.116008  0.073132
  4O   2px        0.272749 -0.100641  0.029213  0.110688  0.065750  0.018756
  4O   2py        0.223900  0.001314  0.052402 -0.070401  0.037891  0.010426
  5O   1s         0.005858  0.019371 -0.005507 -0.001394 -0.015287 -0.003078
  5O   2s        -0.013897 -0.047418  0.011588 -0.006644  0.029351  0.006408
  5O   1pz        0.025852 -0.217753 -0.310678  0.121748 -0.056744  0.159564
  5O   1px       -0.027363  0.177310  0.228020  0.181403  0.031377 -0.128691
  5O   1py       -0.145000 -0.469596  0.269504 -0.076457 -0.074890 -0.075216
  5O   3s        -0.027012 -0.099018  0.041732  0.135110  0.132176  0.019996
  5O   2pz        0.020321 -0.163855 -0.247505  0.117090 -0.048357  0.149826
  5O   2px       -0.021638  0.131700  0.187145  0.168150  0.048080 -0.129577
  5O   2py       -0.096492 -0.328658  0.198238 -0.046614 -0.093318 -0.079445
  6O   1s        -0.002734 -0.004066  0.000334  0.003342  0.000533  0.003744
  6O   2s         0.007253  0.000764  0.004454 -0.007553 -0.005047 -0.007561
  6O   1pz       -0.058339 -0.004354  0.379632  0.090613 -0.043452  0.155590
  6O   1px       -0.053195 -0.253354 -0.172419  0.299883 -0.017922 -0.132828
  6O   1py        0.059394 -0.010179 -0.110074 -0.427302  0.044522 -0.032869
  6O   3s         0.019131  0.128961 -0.051409 -0.003428  0.027483 -0.042887
  6O   2pz       -0.054915 -0.011084  0.295141  0.053426 -0.048955  0.174757
  6O   2px       -0.040631 -0.200573 -0.129067  0.194454 -0.023045 -0.130870
  6O   2py        0.048165 -0.028099 -0.072167 -0.293562  0.030566 -0.027941
  7H   1s         0.027780  0.043700 -0.012810  0.037944 -0.035280 -0.017703
  7H   2s         0.055898  0.133598 -0.038106  0.016156 -0.246816 -0.117140
  8H   1s        -0.004189  0.013827 -0.024168 -0.023380 -0.079058 -0.103666
  8H   2s        -0.023040  0.040754 -0.037345 -0.035784 -0.922345 -0.952210
  9H   1s         0.014229  0.016526  0.014975 -0.029682 -0.095256  0.086714
  9H   2s         0.015570  0.049736  0.021841 -0.039647 -1.051685  0.718243
 10H   1s        -0.011636  0.024871 -0.011840  0.032215 -0.006412  0.102842
 10H   2s        -0.081030  0.055493  0.000856  0.060680 -0.256125  0.749110
 11H   1s        -0.143082  0.043341 -0.025519  0.027988  0.034769  0.007218
 11H   2s        -0.194850  0.058365 -0.041144  0.037976 -0.085553  0.055716
 12H   1s         0.026058 -0.038298  0.017999 -0.073749  0.018529  0.047625
 12H   2s         0.044838 -0.047505 -0.001922 -0.095972 -0.161074  0.221682
 13H   1s         0.012439  0.001447  0.007682 -0.033379  0.012783  0.019888
 13H   2s         0.002857 -0.046054  0.006180  0.039193  0.035645  0.053600
                     30        31        32        33        34        35   
                   0.06294   0.09490   0.10161   0.12483   0.13703   0.14387
                   0.00000   0.00000   0.00000   0.00000   0.00000   0.00000
                  --------  --------  --------  --------  --------  --------
  0N   1s        -0.006743 -0.010422  0.051322 -0.017915 -0.016431 -0.005088
  0N   2s         0.011252  0.021903 -0.094192  0.018592  0.031033  0.016396
  0N   1pz        0.176969  0.182343 -0.106100  0.109184 -0.155581  0.054237
  0N   1px       -0.170003  0.199131  0.138336  0.053661 -0.145290 -0.066365
  0N   1py       -0.116321  0.023856 -0.238905 -0.146277 -0.007523 -0.082086
  0N   3s         0.099648  0.063540 -0.638449  0.312838  0.239337  0.024279
  0N   2pz        0.449447  0.388642 -0.390145  0.339526 -0.312008  0.134505
  0N   2px       -0.404984  0.399125  0.212973  0.189628 -0.191270 -0.173396
  0N   2py       -0.255241  0.061695 -0.643381 -0.353947  0.033305 -0.171563
  1C   1s        -0.011053  0.030162 -0.052059  0.088853  0.018076  0.067499
  1C   2s         0.003409 -0.039403  0.067472 -0.117197 -0.019243 -0.083247
  1C   1pz        0.052684  0.133609 -0.063825 -0.105695 -0.116932 -0.174675
  1C   1px       -0.008718  0.165007 -0.070155  0.045553 -0.007588  0.021233
  1C   1py       -0.030033  0.127930 -0.187239  0.159007 -0.124771  0.004996
  1C   3s         0.179256 -0.361365  0.829773 -1.431616 -0.396553 -1.062422
  1C   2pz       -0.001065  0.252238 -0.146484 -0.321268 -0.333502 -0.686160
  1C   2px        0.168887  0.415914 -0.050318  0.005686 -0.009862 -0.147859
  1C   2py       -0.057954  0.142738 -0.531043  0.265468 -0.479558  0.179186
  2C   1s        -0.001089 -0.009103 -0.049061 -0.011961 -0.033285 -0.042498
  2C   2s        -0.007065 -0.013616  0.093994 -0.010823 -0.006945  0.029393
  2C   1pz       -0.320658  0.133124 -0.071389  0.008331  0.137858  0.009474
  2C   1px        0.233300 -0.116791  0.031471 -0.034048 -0.048077  0.013671
  2C   1py        0.086263  0.019205 -0.079931 -0.004247 -0.187267 -0.055028
  2C   3s         0.055779  0.335819  0.610667  0.291660  0.652301  0.688089
  2C   2pz       -0.339397  0.135574  0.031448  0.185691  0.057392  0.091832
  2C   2px        0.206943 -0.083402  0.178027  0.024488 -0.022493  0.006163
  2C   2py        0.057105  0.058574 -0.010143 -0.006758 -0.353513  0.027038
  3C   1s         0.044120  0.047674  0.023940 -0.003124  0.101159 -0.034754
  3C   2s        -0.055188 -0.038435 -0.033933 -0.028575 -0.154738  0.035972
  3C   1pz        0.070149  0.244288 -0.054007 -0.173777  0.089644  0.084300
  3C   1px        0.009077 -0.007556  0.110717 -0.127236 -0.179774  0.016924
  3C   1py        0.013303  0.138721 -0.067827  0.161865 -0.070829 -0.275518
  3C   3s        -0.687652 -0.948641 -0.259335  0.184757 -1.504936  0.603803
  3C   2pz        0.127695  0.539814 -0.067315 -0.439393  0.365896  0.359135
  3C   2px       -0.000814  0.035970  0.203708 -0.470928 -0.533450 -0.028236
  3C   2py        0.076069  0.288589 -0.117572  0.442290 -0.090702 -0.842096
  4O   1s        -0.002512  0.054824 -0.013394 -0.033409 -0.047366  0.033106
  4O   2s         0.000335 -0.115784  0.033689  0.051691  0.087036 -0.060004
  4O   1pz       -0.012617  0.058258 -0.015174 -0.058964 -0.114059 -0.102228
  4O   1px       -0.005761  0.146800 -0.093318 -0.020273 -0.101387  0.047034
  4O   1py        0.017594 -0.062946 -0.027162  0.020416  0.061626 -0.103737
  4O   3s         0.055317 -0.553198  0.110550  0.423277  0.544653 -0.417470
  4O   2pz       -0.024515  0.082008 -0.037902 -0.092545 -0.231957 -0.128600
  4O   2px       -0.010955  0.229971 -0.115503 -0.073334 -0.130006  0.100612
  4O   2py        0.010936 -0.098637 -0.017539 -0.036566  0.076312 -0.119768
  5O   1s        -0.002235  0.021964  0.045746  0.019364 -0.004899  0.018885
  5O   2s         0.007202 -0.041365 -0.093561 -0.043096  0.014709 -0.039730
  5O   1pz        0.178382 -0.027917  0.073672  0.000918 -0.093089 -0.059918
  5O   1px       -0.128687  0.057943 -0.038216  0.030089 -0.022099 -0.074152
  5O   1py       -0.064216  0.044089  0.144878  0.066861  0.019430  0.011509
  5O   3s        -0.007314 -0.220221 -0.389998 -0.148624 -0.035583 -0.212489
  5O   2pz        0.188397 -0.055398  0.088219 -0.003879 -0.134885 -0.109929
  5O   2px       -0.147312  0.025784 -0.078836  0.019443 -0.045502 -0.131855
  5O   2py       -0.072045  0.068462  0.242878  0.106260  0.027318  0.015963
  6O   1s        -0.001023  0.029657  0.012897  0.004791 -0.009126  0.029989
  6O   2s        -0.000086 -0.067103 -0.016205 -0.004645  0.021381 -0.057122
  6O   1pz        0.221432 -0.041682  0.081224 -0.004326 -0.039586 -0.014228
  6O   1px       -0.155059  0.000965  0.034860  0.077673  0.071052 -0.034723
  6O   1py       -0.057185  0.085319  0.021205  0.033199  0.030932  0.048026
  6O   3s         0.021471 -0.267663 -0.242197 -0.141826  0.046180 -0.354159
  6O   2pz        0.232573 -0.016680  0.112307  0.011095 -0.063186  0.049300
  6O   2px       -0.165508  0.037581  0.054312  0.102314  0.077299  0.016941
  6O   2py       -0.065216  0.135297  0.082631  0.059480  0.052305  0.130877
  7H   1s        -0.009563  0.111338  0.197455  0.106780 -0.065709 -0.025224
  7H   2s        -0.053149  0.566639  1.335647  0.625097 -0.463715 -0.028368
  8H   1s         0.077482 -0.006482 -0.097363 -0.020186 -0.082188  0.018718
  8H   2s         0.830513  0.153304 -0.601357 -0.022731 -0.373844  0.186637
  9H   1s        -0.093077  0.003319 -0.066774 -0.063749  0.003231 -0.006971
  9H   2s        -0.935178  0.088310 -0.226492 -0.647351 -0.082801 -0.433417
 10H   1s         0.023982 -0.058306 -0.041486  0.075502 -0.015141  0.027209
 10H   2s        -0.079494 -0.079189 -0.510974  1.241679  0.212463  1.122540
 11H   1s         0.001316  0.041326  0.028973 -0.074797  0.065109  0.002850
 11H   2s         0.345995  0.720240  0.131245 -0.820599  1.289222  0.628639
 12H   1s         0.025357  0.041733 -0.033068  0.036116  0.002402 -0.078229
 12H   2s         0.367262  0.795907 -0.246476  0.727961  0.754099 -1.263147
 13H   1s        -0.009999  0.063081  0.005995 -0.070286 -0.073623  0.104763
 13H   2s        -0.052211  0.471036 -0.029863 -0.292242 -0.410791  0.708904
                     36        37        38        39        40        41   
                   0.16585   0.22001   0.23947   0.24711   0.34625   0.44368
                   0.00000   0.00000   0.00000   0.00000   0.00000   0.00000
                  --------  --------  --------  --------  --------  --------
  0N   1s         0.041453 -0.005902  0.022852 -0.023473  0.003267  0.007426
  0N   2s        -0.046876  0.045414 -0.017606  0.032370 -0.014964  0.040093
  0N   1pz       -0.176275  0.002667  0.101310  0.055725  0.004269  0.059864
  0N   1px       -0.185874  0.083926 -0.047392 -0.130892  0.052078  0.069364
  0N   1py       -0.089240  0.076550 -0.046913  0.183382 -0.007341  0.090301
  0N   3s        -0.747047 -0.204792 -0.477653  0.392039 -0.082222 -0.712155
  0N   2pz       -0.580164 -0.084857  0.095236  0.277234  0.027007 -0.377168
  0N   2px       -0.611691  0.096253 -0.431337 -0.089976  0.090058 -0.362310
  0N   2py       -0.399103  0.090743 -0.221296  0.493503 -0.100718 -0.249503
  1C   1s        -0.060895  0.112295 -0.045109  0.047477  0.042625 -0.016370
  1C   2s         0.104831 -0.118693  0.065230 -0.090618 -0.050241  0.033666
  1C   1pz       -0.297119  0.137258 -0.317653  0.082210  0.032065 -0.125772
  1C   1px       -0.196005 -0.130701  0.176087  0.297381 -0.100156 -0.027675
  1C   1py       -0.167137 -0.126096  0.003455 -0.270717  0.100361 -0.083788
  1C   3s         0.787848 -1.924242  0.866571 -0.485105 -0.965446  0.492573
  1C   2pz       -0.884087  0.113218 -0.978329  0.323833 -0.027706 -0.811093
  1C   2px       -0.716112 -1.073372  0.854689  1.267665 -0.019233 -1.196684
  1C   2py       -0.553528 -0.853928  0.024563 -1.027564 -0.552444 -0.096077
  2C   1s         0.007996 -0.060498  0.012536 -0.107694  0.059135  0.021772
  2C   2s        -0.009738  0.021403  0.025969  0.136332  0.069114 -0.077853
  2C   1pz        0.051054 -0.070321  0.089889  0.040247  0.034637  0.124514
  2C   1px       -0.076087  0.093938 -0.048642  0.150140  0.203887  0.225991
  2C   1py        0.053546 -0.160115 -0.117076 -0.321284 -0.348259  0.058944
  2C   3s         0.002426  1.248753 -0.422440  1.870512 -1.598709 -0.146597
  2C   2pz        0.116846 -0.133662  0.203170  0.032174  0.042158  2.194031
  2C   2px       -0.041529  0.278806 -0.104756  0.254711  0.693639  2.387557
  2C   2py        0.061813 -0.345963 -0.285643 -0.687922 -1.345738  1.412098
  3C   1s        -0.010282 -0.124727  0.001657  0.026736 -0.006971  0.011521
  3C   2s         0.023218  0.130571  0.053472 -0.032040  0.010074 -0.083467
  3C   1pz        0.007048  0.189489  0.121091 -0.192668 -0.016894 -0.105149
  3C   1px       -0.006758 -0.100105  0.292110  0.179419 -0.072810 -0.020726
  3C   1py        0.256798  0.067681  0.050859  0.125794  0.028974 -0.195773
  3C   3s         0.152908  2.182877 -0.371005 -0.534812  0.103184  0.461402
  3C   2pz        0.348647  0.985293  0.616768 -0.758190  0.074782  0.513393
  3C   2px       -0.031344 -0.770662  1.438579  0.531810 -0.320556 -0.156176
  3C   2py        0.826929  0.502735  0.088653  0.391732 -0.068474  0.038306
  4O   1s         0.046076  0.024476  0.021377  0.000020  0.013227 -0.016358
  4O   2s        -0.065604 -0.005497 -0.024377 -0.012043 -0.037401  0.058412
  4O   1pz        0.047113  0.210685  0.207324 -0.018861 -0.063561  0.014739
  4O   1px        0.016363  0.110230 -0.030178 -0.043300  0.018174  0.005031
  4O   1py       -0.165975  0.177558  0.230895 -0.093830 -0.085334 -0.006825
  4O   3s        -0.707934 -0.543413 -0.369088  0.081023 -0.143189  0.004078
  4O   2pz        0.144181  0.427044  0.479618 -0.047196 -0.092044  0.036257
  4O   2px        0.156117  0.329826 -0.021592 -0.108608  0.067984 -0.026194
  4O   2py       -0.240442  0.346660  0.449281 -0.198306 -0.126466  0.105872
  5O   1s        -0.003094  0.019909 -0.012682  0.003746 -0.066549 -0.079157
  5O   2s         0.008709 -0.040888  0.027711 -0.008376  0.144452  0.120009
  5O   1pz       -0.089348 -0.031340  0.001936 -0.058661  0.181055  0.033918
  5O   1px       -0.012074 -0.072609  0.059069 -0.090466  0.164060  0.125824
  5O   1py       -0.043225  0.067024  0.045280  0.012215  0.202896 -0.109606
  5O   3s         0.025238 -0.255243  0.169006 -0.123473  0.994260  1.971203
  5O   2pz       -0.092088 -0.046017  0.025618 -0.119683  0.471119  0.415385
  5O   2px       -0.017386 -0.190261  0.136446 -0.150465  0.485171  0.696541
  5O   2py       -0.047652  0.111512  0.086623  0.032207  0.335801 -0.306554
  6O   1s         0.009903  0.002598 -0.030828  0.034153 -0.057516  0.076981
  6O   2s        -0.016728  0.006361  0.069118 -0.083603  0.124034 -0.093533
  6O   1pz       -0.034948  0.099004 -0.070254  0.016806 -0.144960  0.022830
  6O   1px       -0.056876  0.022085  0.073601 -0.021017 -0.267377 -0.020050
  6O   1py       -0.046282  0.025885  0.001005  0.182504  0.040789  0.112633
  6O   3s        -0.098287 -0.164897  0.338395 -0.371417  0.922090 -2.169923
  6O   2pz       -0.031722  0.122866 -0.160408  0.078248 -0.389620  0.358771
  6O   2px       -0.030544  0.025426  0.020043 -0.013064 -0.567256  0.270106
  6O   2py       -0.014578  0.099721 -0.064996  0.330716 -0.049839  0.675407
  7H   1s        -0.084292 -0.009529 -0.018623  0.009757  0.086592 -0.015196
  7H   2s        -0.277644 -0.020368  0.091558 -0.521489  0.377668  0.183232
  8H   1s         0.017780  0.103547  0.015561 -0.019075 -0.012370  0.042702
  8H   2s        -0.010972 -0.045661  0.542821  0.347559 -0.093212 -0.041216
  9H   1s        -0.063413 -0.065006 -0.014840 -0.006490 -0.072444 -0.131219
  9H   2s        -0.298436  0.145222 -0.330470  0.175120 -0.047456 -0.002752
 10H   1s        -0.011998 -0.067266 -0.003870 -0.035047 -0.029065 -0.070147
 10H   2s         0.156814 -0.140151  0.827897 -0.302266  0.093133  0.174832
 11H   1s        -0.016783  0.060680  0.024494 -0.019241  0.070634 -0.023258
 11H   2s        -0.503674 -0.109474  0.124204 -0.880048  0.073323  0.279383
 12H   1s         0.029344  0.052692  0.000269 -0.088035 -0.049983  0.131374
 12H   2s         0.866498 -0.043265 -0.390665  0.166698  0.012705 -0.155459
 13H   1s         0.109333 -0.063292 -0.061712  0.024353  0.050383 -0.032535
 13H   2s         0.644389 -0.523983 -0.729986  0.261040  0.440572 -0.411720
                     42        43        44        45        46        47   
                   0.51833   0.54552   0.56117   0.59030   0.62975   0.65000
                   0.00000   0.00000   0.00000   0.00000   0.00000   0.00000
                  --------  --------  --------  --------  --------  --------
  0N   1s        -0.004075  0.004443 -0.001490  0.011787 -0.015657 -0.026296
  0N   2s         0.060802 -0.118339  0.057480 -0.048927  0.154053  0.211287
  0N   1pz       -0.053385 -0.211331  0.235016 -0.202930  0.013036  0.206423
  0N   1px        0.186548 -0.141778  0.212773 -0.016665 -0.004974  0.124144
  0N   1py        0.107539 -0.055156 -0.050253 -0.174034  0.144001  0.235661
  0N   3s        -0.132693  0.604295 -0.034916 -0.331234 -0.420430 -0.325790
  0N   2pz        0.204737  0.244167 -0.370075  0.261941 -0.152331 -0.470019
  0N   2px       -0.305300  0.364549 -0.136029  0.072432 -0.158315 -0.188730
  0N   2py       -0.258609  0.092161  0.040202  0.134390 -0.280228 -0.515752
  1C   1s         0.002355  0.000664  0.036924 -0.009527  0.020390  0.004294
  1C   2s        -0.096828 -0.005277 -0.258801  0.009681 -0.189275  0.115821
  1C   1pz       -0.138313 -0.183043 -0.003860  0.068569  0.026260 -0.004171
  1C   1px        0.203453 -0.159093 -0.116871  0.815171 -0.068775  0.384946
  1C   1py       -0.158396 -0.257214 -0.685566 -0.052215  0.430923 -0.196925
  1C   3s         1.093487 -0.145892  1.191968 -0.262322  0.934520 -0.688247
  1C   2pz       -0.007751  0.635465 -0.087031  0.008873 -0.142928 -0.139430
  1C   2px       -0.001535  0.282221  0.132252 -1.480945  0.192358 -0.815261
  1C   2py        0.561175  0.697539  1.244466 -0.106474 -0.995811  0.069258
  2C   1s        -0.010868  0.000950 -0.001590  0.028690 -0.045593 -0.029041
  2C   2s         0.188443 -0.011917  0.126831 -0.320055  0.567845  0.407743
  2C   1pz       -0.563812 -0.153967  0.203113  0.153456  0.150881 -0.389577
  2C   1px        0.373586  0.279329 -0.042646  0.060390 -0.366256 -0.389181
  2C   1py        0.001220  0.055220 -0.430356 -0.150734  0.236203  0.264183
  2C   3s        -0.673537 -0.262282 -1.166715 -0.096648  0.099817 -0.609882
  2C   2pz        0.419408  0.455042 -0.366810 -0.144754  0.052740  0.202297
  2C   2px       -0.777274  0.048905 -0.246812  0.191504  1.046349  0.254940
  2C   2py        0.138524  0.181993  0.645186  0.250532 -0.314278 -0.853424
  3C   1s         0.014620 -0.026905 -0.013652  0.015370 -0.017607  0.025588
  3C   2s         0.010197  0.250988  0.178272 -0.149913  0.193384 -0.039125
  3C   1pz       -0.060261  0.778284  0.108016  0.237220  0.399480  0.106009
  3C   1px       -0.563783  0.223844 -0.400757  0.124315 -0.497858  0.410647
  3C   1py        0.003882  0.388670 -0.051434 -0.221619 -0.062086 -0.038237
  3C   3s        -0.299760 -0.278241 -0.438248  1.004262 -0.216339  0.164391
  3C   2pz       -0.018901 -1.302618 -0.337560 -0.396893 -0.993289 -0.048451
  3C   2px        0.946126 -0.290026  0.583273 -0.361329  1.190972 -1.037090
  3C   2py       -0.233356 -0.764396  0.035906  0.659998  0.174822  0.094697
  4O   1s        -0.002620  0.015549  0.001643 -0.008307 -0.000226 -0.011176
  4O   2s         0.018322 -0.153952 -0.023825  0.064933 -0.021861  0.044462
  4O   1pz       -0.104281  0.165193  0.006960  0.122043  0.131942  0.022137
  4O   1px       -0.075295  0.193862  0.005236 -0.107447 -0.083411  0.094162
  4O   1py       -0.021194  0.087583 -0.026077 -0.109860 -0.049332 -0.076219
  4O   3s        -0.125657  0.692634  0.062526 -0.040145  0.143327  0.210891
  4O   2pz        0.038806 -0.086370  0.004996  0.017935  0.031178 -0.121899
  4O   2px       -0.102000 -0.127699 -0.064061  0.024315 -0.168115 -0.018331
  4O   2py        0.033209 -0.004042 -0.028720 -0.066502  0.001959 -0.062859
  5O   1s         0.012437 -0.015884  0.002339 -0.002965 -0.002855  0.017116
  5O   2s        -0.036864  0.027249 -0.004051 -0.028179  0.014455  0.014317
  5O   1pz       -0.099070  0.030657  0.093697  0.036311 -0.066616 -0.157273
  5O   1px        0.023967  0.034066 -0.027702  0.091433 -0.163937 -0.092201
  5O   1py        0.034426  0.011932 -0.001717  0.132487 -0.032885 -0.007065
  5O   3s        -0.143265  0.296852 -0.044920  0.123120  0.399058 -0.036067
  5O   2pz       -0.077509  0.054033  0.024231  0.102888  0.076101 -0.026989
  5O   2px       -0.023394  0.175299  0.033809  0.025815 -0.003063 -0.178798
  5O   2py        0.011784 -0.068215  0.004808 -0.041539  0.019101  0.305966
  6O   1s        -0.007546  0.016010 -0.008726 -0.011150  0.014580 -0.020269
  6O   2s         0.005289 -0.032480  0.000781  0.053275 -0.004968  0.057826
  6O   1pz       -0.042667 -0.060890 -0.019510  0.019819  0.124954 -0.007323
  6O   1px        0.019239  0.033495 -0.065280 -0.102439  0.051342 -0.047250
  6O   1py        0.002696  0.044111  0.012316 -0.069090  0.020704  0.098762
  6O   3s         0.231607 -0.274627  0.264886 -0.050723 -0.312812  0.404243
  6O   2pz       -0.113448  0.058175 -0.055927 -0.022448  0.095580 -0.178745
  6O   2px        0.042215  0.026816 -0.065330 -0.003457 -0.015457 -0.150368
  6O   2py       -0.112906  0.138680 -0.170585 -0.041673  0.223031 -0.102868
  7H   1s        -0.072306  0.106647 -0.172789  0.166824  0.003453 -0.457442
[...]
  6O   2px       -0.146247  0.415298 -0.505725  0.610833 -0.071583  1.257171
  6O   2py        0.630196  0.535744  0.629311  0.108034 -0.084234 -0.681782
  7H   1s        -0.143941 -0.016353  0.064735  0.157008  0.068700 -0.207942
  7H   2s         0.217376 -0.049332 -0.290743  0.632627  0.143086 -0.450877
  8H   1s         0.066563  0.251528 -0.135626 -0.022950  0.120179 -0.092165
  8H   2s         0.195565  0.183225 -0.260687 -0.055213 -0.100180 -0.150712
  9H   1s         0.009583 -0.247095 -0.032572  0.109497  0.236437 -0.090115
  9H   2s         0.160317 -0.154790 -0.084589  0.056526  0.246441 -0.091216
 10H   1s         0.017150  0.366569 -0.290625 -0.157720 -0.104705 -0.138468
 10H   2s         0.084195  0.017785 -0.297805 -0.167589 -0.255462  0.194117
 11H   1s        -0.022029 -0.173920 -0.211554 -0.193296 -0.514060 -0.123127
 11H   2s         0.067536  0.024208 -0.235247 -0.000076 -0.663310  0.098965
 12H   1s         0.041151  0.177332 -0.151661  0.210350  0.037421 -0.130524
 12H   2s         0.220006  0.054410  0.108847  0.201872 -0.004731  0.043481
 13H   1s         0.296686  0.116118  0.082381  0.352302  0.141756 -0.128696
 13H   2s        -0.590800 -0.134831 -0.494797 -0.683156  0.229161 -1.259597
                     72        73        74        75        76   
                   1.45688   1.71816   1.79850   1.89826   2.02777
                   0.00000   0.00000   0.00000   0.00000   0.00000
                  --------  --------  --------  --------  --------
  0N   1s        -0.018375 -0.054378 -0.006292 -0.033529  0.000897
  0N   2s        -0.770357 -1.382270 -0.439832 -0.682945  0.001356
  0N   1pz        0.013564 -0.029848 -0.075263 -0.020085  0.027251
  0N   1px        0.008307  0.013633 -0.016408 -0.023265  0.021310
  0N   1py       -0.044237 -0.089886 -0.115175 -0.040632  0.014826
  0N   3s         2.142191  4.209323  0.850198  2.366439  0.535733
  0N   2pz       -0.067734  0.769621  0.278910  0.359289  0.184413
  0N   2px       -0.071617  0.722549  0.119624  0.628768  0.331697
  0N   2py        0.534399  0.744040  0.248042  0.485519 -0.087212
  1C   1s        -0.033744  0.163430 -0.010987  0.062724  0.008072
  1C   2s        -0.469470  2.179540 -0.412902  0.532426  0.127529
  1C   1pz       -0.126054  0.050420  0.020796 -0.139575 -0.059083
  1C   1px       -0.078401  0.191518  0.055622 -0.184707 -0.034966
  1C   1py        0.165583  0.158078 -0.070699  0.021086  0.001906
  1C   3s         1.730477 -7.778446  0.922094 -3.134044 -0.839025
  1C   2pz        1.566690  0.986011  0.229234  1.463737  1.146050
  1C   2px        1.409744  0.107858  0.234123 -0.200724  0.773956
  1C   2py       -0.439523 -0.558752  0.598190  0.242352  0.057397
  2C   1s         0.010862 -0.045848  0.033610  0.010212 -0.016651
  2C   2s         0.285104 -0.258942  0.426028  0.352926 -0.062709
  2C   1pz       -0.037622 -0.044673 -0.041637 -0.040832 -0.212866
  2C   1px        0.061792  0.022734 -0.124771  0.109734 -0.171921
  2C   1py       -0.097365 -0.138402  0.085352 -0.129033 -0.154741
  2C   3s        -0.329610  2.443731  2.655894 -0.122156 -0.537665
  2C   2pz       -0.437977 -0.165571 -0.254672 -0.110860 -2.670359
  2C   2px       -0.678801  0.626409 -0.897117 -0.248001 -3.067016
  2C   2py        0.325961 -1.380904  1.505341  0.168078 -1.738921
  3C   1s         0.064812 -0.033432  0.008701 -0.107409 -0.023045
  3C   2s         0.889550 -0.229392  0.090013 -0.921220 -0.209455
  3C   1pz        0.024545 -0.097282 -0.063714  0.199615  0.044976
  3C   1px       -0.001107 -0.274504 -0.023254  0.178855  0.060054
  3C   1py       -0.129653 -0.010728 -0.019410  0.031257 -0.049769
  3C   3s        -3.608218  1.951925 -0.449243  4.610257  0.563008
  3C   2pz       -1.458197  0.029996  0.120813  0.607467 -0.354917
  3C   2px       -0.320464 -0.943389  0.266522 -0.536035 -0.264552
  3C   2py        1.149992 -0.263996 -0.169278  0.842946  0.728202
  4O   1s         0.009144  0.014348 -0.000775 -0.016395 -0.001024
  4O   2s        -0.265165 -0.517056 -0.023086  1.596979  0.182387
  4O   1pz        0.150131  0.074475  0.016881 -0.191389 -0.021228
  4O   1px       -0.235559  0.118560  0.027333 -0.190649 -0.061779
  4O   1py        0.375768  0.007024 -0.066106 -0.019361  0.025303
  4O   3s         1.023139  0.716700  0.043095 -3.471702 -0.364175
  4O   2pz       -0.753464 -0.185326 -0.042608  0.998403  0.117281
  4O   2px        0.310546 -0.242675 -0.062974  1.065295  0.230169
  4O   2py       -1.403295  0.098797  0.193456 -0.003561 -0.165783
  5O   1s         0.008954  0.001979 -0.023354  0.005569 -0.010557
  5O   2s        -0.120676 -0.000718  1.504217 -0.115137  1.283639
  5O   1pz        0.098392 -0.011374  0.101297  0.019071  0.071599
  5O   1px        0.072743  0.038157  0.171794 -0.052377  0.091101
  5O   1py        0.254283 -0.053710  0.010898  0.043374 -0.081533
  5O   3s        -0.085410 -0.159512 -3.326078  0.073722 -3.771097
  5O   2pz       -0.273657  0.005214 -0.835061 -0.078336 -0.583592
  5O   2px       -0.199702 -0.205627 -1.150396  0.087130 -0.951667
  5O   2py       -0.595026  0.262960 -0.221564 -0.153278  0.582017
  6O   1s        -0.002622  0.005190 -0.014678 -0.004812  0.009662
  6O   2s        -0.004370 -0.113992  1.100700  0.212930 -1.671309
  6O   1pz        0.073083 -0.001554 -0.076084 -0.040114  0.060916
  6O   1px        0.099757  0.051848 -0.118505  0.040068  0.081374
  6O   1py       -0.024903  0.012323 -0.028290 -0.018887  0.117784
  6O   3s         0.260122  0.018195 -2.526012 -0.260710  4.918820
  6O   2pz       -0.126637  0.005739  0.693488  0.113862 -0.756510
  6O   2px       -0.153448 -0.214748  0.859389 -0.046091 -0.610799
  6O   2py       -0.099979  0.172791  0.333791  0.072149 -1.286303
  7H   1s        -0.336944 -0.386859  0.029855 -0.221083  0.159652
  7H   2s        -0.609520 -0.215893 -0.133163 -0.125526  0.112741
  8H   1s        -0.212181 -0.373009 -0.074151 -0.266644  0.004164
  8H   2s        -0.180485 -0.265709  0.040076 -0.087480 -0.056981
  9H   1s        -0.100423 -0.377067 -0.079969 -0.162747 -0.019314
  9H   2s        -0.118247 -0.067075  0.019028  0.071029  0.007429
 10H   1s        -0.526809  0.602049  0.007852  0.033912 -0.121812
 10H   2s        -0.480116  0.382152 -0.170393 -0.176089 -0.129488
 11H   1s        -0.065610 -0.055977  0.139856 -0.514494 -0.207901
 11H   2s        -0.093061 -0.008244 -0.022437 -0.403025 -0.278891
 12H   1s         0.688794 -0.152233 -0.032589 -0.283724  0.089395
 12H   2s         0.704117 -0.126913  0.026901 -0.105451  0.234942
 13H   1s         0.486205 -0.180528 -0.087048  0.520779  0.158897
 13H   2s         0.427567 -0.084931 -0.028608  0.131716 -0.006075



                    ********************************
                    * MULLIKEN POPULATION ANALYSIS *
                    ********************************

-----------------------
MULLIKEN ATOMIC CHARGES
-----------------------
   0 N :   -0.757636
   1 C :   -0.134506
   2 C :    0.529008
   3 C :   -0.002815
   4 O :   -0.620606
   5 O :   -0.553775
   6 O :   -0.477059
   7 H :    0.413573
   8 H :    0.367848
   9 H :    0.367305
  10 H :    0.194878
  11 H :    0.135449
  12 H :    0.142949
  13 H :    0.395385
Sum of atomic charges:   -0.0000000

--------------------------------
MULLIKEN REDUCED ORBITAL CHARGES
--------------------------------
  0 N s       :     3.689914  s :     3.689914
      pz      :     1.296930  p :     4.067721
      px      :     1.401701
      py      :     1.369091
  1 C s       :     3.329901  s :     3.329901
      pz      :     0.869475  p :     2.804605
      px      :     0.890284
      py      :     1.044846
  2 C s       :     2.917876  s :     2.917876
      pz      :     0.840089  p :     2.553116
      px      :     0.822576
      py      :     0.890451
  3 C s       :     3.255961  s :     3.255961
      pz      :     0.860755  p :     2.746854
      px      :     0.838397
      py      :     1.047702
  4 O s       :     3.915894  s :     3.915894
      pz      :     1.505433  p :     4.704711
      px      :     1.726544
      py      :     1.472734
  5 O s       :     3.938229  s :     3.938229
      pz      :     1.493407  p :     4.615546
      px      :     1.413335
      py      :     1.708804
  6 O s       :     3.931965  s :     3.931965
      pz      :     1.457019  p :     4.545094
      px      :     1.532858
      py      :     1.555217
  7 H s       :     0.586427  s :     0.586427
  8 H s       :     0.632152  s :     0.632152
  9 H s       :     0.632695  s :     0.632695
 10 H s       :     0.805122  s :     0.805122
 11 H s       :     0.864551  s :     0.864551
 12 H s       :     0.857051  s :     0.857051
 13 H s       :     0.604615  s :     0.604615


                     *******************************
                     * LOEWDIN POPULATION ANALYSIS *
                     *******************************

----------------------
LOEWDIN ATOMIC CHARGES
----------------------
   0 N :   -0.276034
   1 C :   -0.140116
   2 C :    0.187741
   3 C :   -0.033503
   4 O :   -0.430510
   5 O :   -0.424716
   6 O :   -0.346932
   7 H :    0.313896
   8 H :    0.257634
   9 H :    0.259568
  10 H :    0.138617
  11 H :    0.093128
  12 H :    0.102311
  13 H :    0.298917

-------------------------------
LOEWDIN REDUCED ORBITAL CHARGES
-------------------------------
  0 N s       :     3.254451  s :     3.254451
      pz      :     1.299415  p :     4.021583
      px      :     1.379885
      py      :     1.342283
  1 C s       :     3.000996  s :     3.000996
      pz      :     0.995191  p :     3.139120
      px      :     1.034669
      py      :     1.109260
  2 C s       :     2.889858  s :     2.889858
      pz      :     0.942244  p :     2.922401
      px      :     0.979133
      py      :     1.001024
  3 C s       :     2.968886  s :     2.968886
      pz      :     0.980282  p :     3.064617
      px      :     0.986095
      py      :     1.098239
  4 O s       :     3.606990  s :     3.606990
      pz      :     1.569390  p :     4.823520
      px      :     1.748716
      py      :     1.505415
  5 O s       :     3.632311  s :     3.632311
      pz      :     1.541460  p :     4.792405
      px      :     1.500861
      py      :     1.750084
  6 O s       :     3.615948  s :     3.615948
      pz      :     1.504409  p :     4.730984
      px      :     1.585951
      py      :     1.640624
  7 H s       :     0.686104  s :     0.686104
  8 H s       :     0.742366  s :     0.742366
  9 H s       :     0.740432  s :     0.740432
 10 H s       :     0.861383  s :     0.861383
 11 H s       :     0.906872  s :     0.906872
 12 H s       :     0.897689  s :     0.897689
 13 H s       :     0.701083  s :     0.701083


                      *****************************
                      * MAYER POPULATION ANALYSIS *
                      *****************************

  NA   - Mulliken gross atomic population
  ZA   - Total nuclear charge
  QA   - Mulliken gross atomic charge
  VA   - Mayer's total valence
  BVA  - Mayer's bonded valence
  FA   - Mayer's free valence

  ATOM       NA         ZA         QA         VA         BVA        FA
  0 N      7.7576     7.0000    -0.7576     2.8876     2.8876    -0.0000
  1 C      6.1345     6.0000    -0.1345     3.3266     3.3266     0.0000
  2 C      5.4710     6.0000     0.5290     3.8573     3.8573     0.0000
  3 C      6.0028     6.0000    -0.0028     3.7210     3.7210    -0.0000
  4 O      8.6206     8.0000    -0.6206     1.7336     1.7336    -0.0000
  5 O      8.5538     8.0000    -0.5538     1.8586     1.8586     0.0000
  6 O      8.4771     8.0000    -0.4771     1.9663     1.9663     0.0000
  7 H      0.5864     1.0000     0.4136     0.8368     0.8368     0.0000
  8 H      0.6322     1.0000     0.3678     0.8337     0.8337     0.0000
  9 H      0.6327     1.0000     0.3673     0.8326     0.8326     0.0000
 10 H      0.8051     1.0000     0.1949     0.9317     0.9317     0.0000
 11 H      0.8646     1.0000     0.1354     0.9265     0.9265    -0.0000
 12 H      0.8571     1.0000     0.1429     0.9276     0.9276    -0.0000
 13 H      0.6046     1.0000     0.3954     0.8468     0.8468    -0.0000

  Mayer bond orders larger than 0.1
B(  0-N ,  1-C ) :   0.6845 B(  0-N ,  7-H ) :   0.5520 B(  0-N ,  8-H ) :   0.8233 
B(  0-N ,  9-H ) :   0.8290 B(  1-C ,  2-C ) :   0.7739 B(  1-C ,  3-C ) :   0.9107 
B(  1-C , 10-H ) :   0.9236 B(  2-C ,  5-O ) :   1.4038 B(  2-C ,  6-O ) :   1.6661 
B(  3-C ,  4-O ) :   0.9361 B(  3-C , 11-H ) :   0.9192 B(  3-C , 12-H ) :   0.9356 
B(  4-O , 13-H ) :   0.7158 B(  5-O ,  6-O ) :   0.1331 B(  5-O ,  7-H ) :   0.2758 
B(  6-O , 13-H ) :   0.1018 

-------
TIMINGS
-------

Total SCF time: 0 days 0 hours 0 min 5 sec 

Total time                  ....       5.122 sec
Sum of individual times     ....       5.076 sec  ( 99.1%)

Fock matrix formation       ....       4.480 sec  ( 87.5%)
  XC integration            ....       0.358 sec  (  8.0% of F)
    Basis function eval.    ....       0.107 sec  ( 30.0% of XC)
    Density eval.           ....       0.041 sec  ( 11.4% of XC)
    XC-Functional eval.     ....       0.023 sec  (  6.3% of XC)
    XC-Potential eval.      ....       0.061 sec  ( 16.9% of XC)
Diagonalization             ....       0.006 sec  (  0.1%)
Density matrix formation    ....       0.001 sec  (  0.0%)
Population analysis         ....       0.004 sec  (  0.1%)
Initial guess               ....       0.140 sec  (  2.7%)
Orbital Transformation      ....       0.000 sec  (  0.0%)
Orbital Orthonormalization  ....       0.000 sec  (  0.0%)
DIIS solution               ....       0.003 sec  (  0.1%)
SOSCF solution              ....       0.029 sec  (  0.6%)
Grid generation             ....       0.412 sec  (  8.1%)

-------------------------   --------------------
FINAL SINGLE POINT ENERGY      -398.584970286164
-------------------------   --------------------

MakePlots. Basename = [orca_orbitals]

---------------
PLOT GENERATION
---------------
choosing x-range =    -9.154317 ..    12.098218
choosing y-range =   -11.593380 ..     9.639250
choosing z-range =    -9.896751 ..     9.704792

GBW-File       ... orca_orbitals.gbw
PlotType       ... MO-PLOT
MO/Operator    ... 27 0
Output file    ... orcaHOMO-27.cube
Format         ... Gaussian-Cube
Resolution     ... 40 40 40
Boundaries     ...    -9.154317    12.098218 (x direction)
                     -11.593380     9.639250 (y direction)
                      -9.896751     9.704792 (z direction)
choosing x-range =    -9.154317 ..    12.098218
choosing y-range =   -11.593380 ..     9.639250
choosing z-range =    -9.896751 ..     9.704792

GBW-File       ... orca_orbitals.gbw
PlotType       ... MO-PLOT
MO/Operator    ... 26 0
Output file    ... orcaHOMO-1-26.cube
Format         ... Gaussian-Cube
Resolution     ... 40 40 40
Boundaries     ...    -9.154317    12.098218 (x direction)
                     -11.593380     9.639250 (y direction)
                      -9.896751     9.704792 (z direction)
choosing x-range =    -9.154317 ..    12.098218
choosing y-range =   -11.593380 ..     9.639250
choosing z-range =    -9.896751 ..     9.704792

GBW-File       ... orca_orbitals.gbw
PlotType       ... MO-PLOT
MO/Operator    ... 25 0
Output file    ... orcaHOMO-2-25.cube
Format         ... Gaussian-Cube
Resolution     ... 40 40 40
Boundaries     ...    -9.154317    12.098218 (x direction)
                     -11.593380     9.639250 (y direction)
                      -9.896751     9.704792 (z direction)
choosing x-range =    -9.154317 ..    12.098218
choosing y-range =   -11.593380 ..     9.639250
choosing z-range =    -9.896751 ..     9.704792

GBW-File       ... orca_orbitals.gbw
PlotType       ... MO-PLOT
MO/Operator    ... 28 0
Output file    ... orcaLUMO-28.cube
Format         ... Gaussian-Cube
Resolution     ... 40 40 40
Boundaries     ...    -9.154317    12.098218 (x direction)
                     -11.593380     9.639250 (y direction)
                      -9.896751     9.704792 (z direction)
choosing x-range =    -9.154317 ..    12.098218
choosing y-range =   -11.593380 ..     9.639250
choosing z-range =    -9.896751 ..     9.704792

GBW-File       ... orca_orbitals.gbw
PlotType       ... MO-PLOT
MO/Operator    ... 29 0
Output file    ... orcaLUMO+1-29.cube
Format         ... Gaussian-Cube
Resolution     ... 40 40 40
Boundaries     ...    -9.154317    12.098218 (x direction)
                     -11.593380     9.639250 (y direction)
                      -9.896751     9.704792 (z direction)
choosing x-range =    -9.154317 ..    12.098218
choosing y-range =   -11.593380 ..     9.639250
choosing z-range =    -9.896751 ..     9.704792

GBW-File       ... orca_orbitals.gbw
PlotType       ... MO-PLOT
MO/Operator    ... 30 0
Output file    ... orcaLUMO+2-30.cube
Format         ... Gaussian-Cube
Resolution     ... 40 40 40
Boundaries     ...    -9.154317    12.098218 (x direction)
                     -11.593380     9.639250 (y direction)
                      -9.896751     9.704792 (z direction)

                            ***************************************
                            *     ORCA property calculations      *
                            ***************************************

                                    ---------------------
                                    Active property flags
                                    ---------------------
   (+) Dipole Moment
   (+) Quadrupole Moment


------------------------------------------------------------------------------
                       ORCA ELECTRIC PROPERTIES CALCULATION
------------------------------------------------------------------------------

Dipole Moment Calculation                       ... on
Quadrupole Moment Calculation                   ... on
Polarizability Calculation                      ... off
GBWName                                         ... orca_orbitals.gbw
Electron density file                           ... orca_orbitals.scfp.tmp
The origin for moment calculation is the CENTER OF MASS  = ( 1.166935, -0.302423  0.588058)

-------------
DIPOLE MOMENT
-------------
                                X             Y             Z
Electronic contribution:     -1.72005       3.37771       1.29156
Nuclear contribution   :      1.20193      -6.38043      -2.82257
                        -----------------------------------------
Total Dipole Moment    :     -0.51812      -3.00273      -1.53100
                        -----------------------------------------
Magnitude (a.u.)       :      3.41010
Magnitude (Debye)      :      8.66778


------------------------
QUADRUPOLE MOMENT (A.U.)
------------------------

                XX           YY           ZZ           XY           XZ           YZ
  NUC       332.79359    222.54969    109.44029    -41.46483    105.00916     75.68235
  EL       -369.41839   -251.74589   -138.22773     49.02841   -107.09417    -72.28143
  TOT       -36.62480    -29.19620    -28.78744      7.56358     -2.08501      3.40092 (a.u.)
            -49.26161    -39.26989    -38.72009     10.17327     -2.80441      4.57435 (Buckingham)

diagonalized tensor: 
  -42.29219    -28.56943    -23.74682   (a.u.)
  -56.88444    -38.42686    -31.94028   (Buckingham)
  -32.26813      8.90014     23.36799   (traceless form in Buckingham)

    0.80591     -0.41558      0.42166  
   -0.53260     -0.19787      0.82291  
    0.25855      0.88777      0.38080  

Isotropic quadrupole : -31.53615


Timings for individual modules:

Sum of individual times         ...        6.539 sec (=   0.109 min)
GTO integral calculation        ...        0.483 sec (=   0.008 min)   7.4 %
SCF iterations                  ...        5.267 sec (=   0.088 min)  80.5 %
Orbital/Density plot generation ...        0.789 sec (=   0.013 min)  12.1 %
                             ****ORCA TERMINATED NORMALLY****
TOTAL RUN TIME: 0 days 0 hours 0 minutes 6 seconds 738 msec
