
                                 *****************
                                 * O   R   C   A *
                                 *****************

           --- An Ab Initio, DFT and Semiempirical electronic structure package ---

                  #######################################################
                  #                        -***-                        #
                  #  Department of molecular theory and spectroscopy    #
                  #              Directorship: Frank Neese              #
                  # Max Planck Institute for Chemical Energy Conversion #
                  #                  D-45470 Muelheim/Ruhr              #
                  #                       Germany                       #
                  #                                                     #
                  #                  All rights reserved                #
                  #                        -***-                        #
                  #######################################################


                         Program Version 4.0.1.2 - RELEASE -


 With contributions from (in alphabetic order):
   Daniel Aravena         : Magnetic Properties
   Michael Atanasov       : Ab Initio Ligand Field Theory
   Ute Becker             : Parallelization
   Martin Brehm           : Molecular dynamics
   Dmytro Bykov           : SCF Hessian
   Vijay G. Chilkuri      : MRCI spin determinant printing
   Dipayan Datta          : RHF DLPNO-CCSD density
   Achintya Kumar Dutta   : EOM-CC, STEOM-CC
   Dmitry Ganyushin       : Spin-Orbit,Spin-Spin,Magnetic field MRCI
   Yang Guo               : DLPNO-NEVPT2, CIM, IAO-localization
   Andreas Hansen         : Spin unrestricted coupled pair/coupled cluster methods
   Lee Huntington         : MR-EOM, pCC
   Robert Izsak           : Overlap fitted RIJCOSX, COSX-SCS-MP3, EOM
   Christian Kollmar      : KDIIS, OOCD, Brueckner-CCSD(T), CCSD density
   Simone Kossmann        : Meta GGA functionals, TD-DFT gradient, OOMP2, MP2 Hessian
   Martin Krupicka        : AUTO-CI
   Dagmar Lenk            : GEPOL surface
   Dimitrios Liakos       : Extrapolation schemes; parallel MDCI
   Dimitrios Manganas     : ROCIS; embedding schemes
   Dimitrios Pantazis     : SARC Basis sets
   Taras Petrenko         : DFT Hessian,TD-DFT gradient, ASA, ECA, R-Raman, ABS, FL, XAS/XES, NRVS
   Peter Pinski           : DLPNO-MP2
   Christoph Reimann      : Effective Core Potentials
   Marius Retegan         : Local ZFS, SOC
   Christoph Riplinger    : Optimizer, TS searches, QM/MM, DLPNO-CCSD(T), (RO)-DLPNO pert. Triples
   Tobias Risthaus        : Range-separated hybrids, TD-DFT gradient, RPA, STAB
   Michael Roemelt        : Restricted open shell CIS
   Masaaki Saitow         : Open-shell DLPNO
   Barbara Sandhoefer     : DKH picture change effects
   Kantharuban Sivalingam : CASSCF convergence, NEVPT2, FIC-MRCI
   Georgi Stoychev        : AutoAux
   Boris Wezisla          : Elementary symmetry handling
   Frank Wennmohs         : Technical directorship


 We gratefully acknowledge several colleagues who have allowed us to
 interface, adapt or use parts of their codes:
   Stefan Grimme, W. Hujo, H. Kruse,             : VdW corrections, initial TS optimization,
                  C. Bannwarth                     DFT functionals, gCP, sTDA/sTD-DF
   Ed Valeev                                     : LibInt (2-el integral package), F12 methods
   Garnet Chan, S. Sharma, J. Yang, R. Olivares  : DMRG
   Ulf Ekstrom                                   : XCFun DFT Library
   Mihaly Kallay                                 : mrcc  (arbitrary order and MRCC methods)
   Andreas Klamt, Michael Diedenhofen            : otool_cosmo (COSMO solvation model)
   Jiri Pittner, Ondrej Demel                    : Mk-CCSD
   Frank Weinhold                                : gennbo (NPA and NBO analysis)
   Christopher J. Cramer and Donald G. Truhlar   : smd solvation model


 Your calculation uses the libint2 library for the computation of 2-el integrals
 For citations please refer to: http://libint.valeyev.net

 This ORCA versions uses:
   CBLAS   interface :  Fast vector & matrix operations
   LAPACKE interface :  Fast linear algebra routines
   SCALAPACK package :  Parallel linear algebra routines


Your calculation utilizes the basis: 6-31G
   H-He, Li-Ne : W. J. Hehre, R. Ditchfield and J.A. Pople, J. Chem. Phys. 56, 2257 (1972).
                 Note: He and Ne are unpublished basis sets taken from the Gaussian program.
                 Note: Li and B from J. D. Dill and J. A. Pople, J. Chem. Phys. 62, 2921 (1975).
   Na - Ar     : M. M. Francl, W. J. Pietro, W. J. Hehre, J. S. Binkley, M. S. Gordon, 
                 D. J. DeFrees and J. A. Pople, J. Chem. Phys. 77, 3654 (1982).
   K - Zn      : V. A. Rassolov, J. A. Pople, M. A. Ratner, and T. L. Windus, J. Chem. Phys. 109, 1223 (1998).

================================================================================
                                        WARNINGS
                       Please study these warnings very carefully!
================================================================================

Warning: TCutStore was < 0. Adjusted to Thresh (uncritical)

WARNING: Geometry Optimization
  ===> : Switching off AutoStart
         For restart on a previous wavefunction, please use MOREAD

INFO   : the flag for use of LIBINT has been found!

================================================================================
                                       INPUT FILE
================================================================================
NAME = orca_input.in
|  1> # Test redundant internal optimization for: agonist1.mol2
|  2> #
|  3> ! opt B3LYP
|  4> ! PrintBasis 6-31G
|  5> %output
|  6>  print[P_MOs]1
|  7>  end #output
|  8> * xyz 0 1
|  9>   N1      -0.34148337   -1.56874522   -0.67993076 
| 10>   C2       0.50965458   -0.91175603    0.37917679 
| 11>   C3      -0.06337900    0.59844785    0.43877524 
| 12>   C4       2.01053648   -0.88407460    0.06857378 
| 13>   O5       2.69786090   -0.35490224    1.19293070 
| 14>   O6      -1.09594765    0.68011230   -0.28032405 
| 15>   O7       0.55581891    1.39663119    1.11424992 
| 16>   H8      -1.14001565   -0.76712603   -0.89966689 
| 17>   H9       0.18476830   -1.76615608   -1.53289474 
| 18>   H10     -0.77441791   -2.43071187   -0.34691956 
| 19>   H11      0.34168179   -1.37227683    1.37905364 
| 20>   H12      2.23356387   -0.26810784   -0.82431269 
| 21>   H13      2.44317579   -1.89559220   -0.04825202 
| 22>   H14      2.31580844    0.55239438    1.43131449 
| 23>  
| 24> *
| 25> %elprop
| 26> Quadrupole True
| 27> end
| 28> %pal
| 29> nprocs 1                 
| 30> endd                         ****END OF INPUT****
================================================================================

                       *****************************
                       * Geometry Optimization Run *
                       *****************************

Geometry optimization settings:
Update method            Update   .... BFGS
Choice of coordinates    CoordSys .... Redundant Internals
Initial Hessian          InHess   .... Almoef's Model

Convergence Tolerances:
Energy Change            TolE     ....  5.0000e-06 Eh
Max. Gradient            TolMAXG  ....  3.0000e-04 Eh/bohr
RMS Gradient             TolRMSG  ....  1.0000e-04 Eh/bohr
Max. Displacement        TolMAXD  ....  4.0000e-03 bohr
RMS Displacement         TolRMSD  ....  2.0000e-03 bohr

------------------------------------------------------------------------------
                        ORCA OPTIMIZATION COORDINATE SETUP
------------------------------------------------------------------------------

The optimization will be done in new redundant internal coordinates
Making redundant internal coordinates   ...  (new redundants) done
Evaluating the initial hessian          ...  (Almloef) done
Evaluating the coordinates              ...  done
Calculating the B-matrix                .... done
Calculating the G-matrix                .... done
Diagonalizing the G-matrix              .... done
The first mode is                       ....   26
The number of degrees of freedom        ....   36

    -----------------------------------------------------------------
                    Redundant Internal Coordinates


    -----------------------------------------------------------------
         Definition                    Initial Value    Approx d2E/dq
    -----------------------------------------------------------------
      1. B(C   1,N   0)                  1.5092         0.361118   
      2. B(C   2,C   1)                  1.6164         0.272012   
      3. B(C   3,C   1)                  1.5329         0.369570   
      4. B(O   4,C   3)                  1.4201         0.501061   
      5. B(O   5,C   2)                  1.2609         0.899046   
      6. B(O   6,C   2)                  1.2152         1.063457   
      7. B(H   7,N   0)                  1.1526         0.256245   
      8. B(H   8,N   0)                  1.0215         0.414810   
      9. B(H   9,N   0)                  1.0204         0.416414   
     10. B(H  10,C   1)                  1.1136         0.330226   
     11. B(H  11,C   3)                  1.1074         0.337764   
     12. B(H  12,C   3)                  1.1063         0.339118   
     13. B(H  13,O   4)                  1.0129         0.428114   
     14. A(C   1,N   0,H   8)          112.3066         0.325345   
     15. A(H   7,N   0,H   8)          109.3981         0.277487   
     16. A(H   7,N   0,H   9)          110.8395         0.277652   
     17. A(C   1,N   0,H   7)          102.8112         0.300933   
     18. A(C   1,N   0,H   9)          112.2074         0.325552   
     19. A(H   8,N   0,H   9)          109.1366         0.299383   
     20. A(C   2,C   1,H  10)          107.4460         0.303762   
     21. A(C   2,C   1,C   3)          109.7372         0.343719   
     22. A(N   0,C   1,H  10)          111.4082         0.316102   
     23. A(N   0,C   1,C   3)          114.6979         0.358356   
     24. A(C   3,C   1,H  10)          109.6995         0.319189   
     25. A(N   0,C   1,C   2)          103.4540         0.340303   
     26. A(O   5,C   2,O   6)          133.7651         0.506149   
     27. A(C   1,C   2,O   6)          116.9708         0.409898   
     28. A(C   1,C   2,O   5)          109.2564         0.397929   
     29. A(H  11,C   3,H  12)          110.1602         0.285250   
     30. A(O   4,C   3,H  12)          103.5935         0.335053   
     31. A(C   1,C   3,H  12)          112.8154         0.320577   
     32. A(O   4,C   3,H  11)          109.4892         0.334830   
     33. A(C   1,C   3,H  11)          111.7521         0.320368   
     34. A(C   1,C   3,O   4)          108.6743         0.379082   
     35. A(C   3,O   4,H  13)          109.7284         0.345357   
     36. D(H  10,C   1,N   0,H   7)    107.5240         0.011985   
     37. D(C   3,C   1,N   0,H   8)     -9.6262         0.011985   
     38. D(H  10,C   1,N   0,H   9)    -11.6130         0.011985   
     39. D(H  10,C   1,N   0,H   8)   -134.9949         0.011985   
     40. D(C   3,C   1,N   0,H   7)   -127.1073         0.011985   
     41. D(C   2,C   1,N   0,H   7)     -7.6206         0.011985   
     42. D(C   2,C   1,N   0,H   8)    109.8604         0.011985   
     43. D(C   3,C   1,N   0,H   9)    113.7557         0.011985   
     44. D(C   2,C   1,N   0,H   9)   -126.7576         0.011985   
     45. D(O   6,C   2,C   1,C   3)    -48.9164         0.006006   
     46. D(O   6,C   2,C   1,N   0)   -171.7548         0.006006   
     47. D(O   5,C   2,C   1,H  10)   -110.5708         0.006006   
     48. D(O   5,C   2,C   1,N   0)      7.3719         0.006006   
     49. D(O   6,C   2,C   1,H  10)     70.3025         0.006006   
     50. D(O   5,C   2,C   1,C   3)    130.2103         0.006006   
     51. D(H  12,C   3,C   1,H  10)     65.8522         0.010920   
     52. D(H  12,C   3,C   1,N   0)    -60.4044         0.010920   
     53. D(H  11,C   3,C   1,H  10)   -169.3686         0.010920   
     54. D(H  11,C   3,C   1,C   2)    -51.5432         0.010920   
     55. D(H  11,C   3,C   1,N   0)     64.3747         0.010920   
     56. D(O   4,C   3,C   1,H  10)    -48.4364         0.010920   
     57. D(H  12,C   3,C   1,C   2)   -176.3223         0.010920   
     58. D(O   4,C   3,C   1,C   2)     69.3891         0.010920   
     59. D(O   4,C   3,C   1,N   0)   -174.6931         0.010920   
     60. D(H  13,O   4,C   3,H  12)   -175.3908         0.019851   
     61. D(H  13,O   4,C   3,H  11)     67.1120         0.019851   
     62. D(H  13,O   4,C   3,C   1)    -55.2031         0.019851   
    -----------------------------------------------------------------

Number of atoms                         .... 14
Number of degrees of freedom            .... 62

         *************************************************************
         *                GEOMETRY OPTIMIZATION CYCLE   1            *
         *************************************************************
---------------------------------
CARTESIAN COORDINATES (ANGSTROEM)
---------------------------------
  N     -0.341483   -1.568745   -0.679931
  C      0.509655   -0.911756    0.379177
  C     -0.063379    0.598448    0.438775
  C      2.010536   -0.884075    0.068574
  O      2.697861   -0.354902    1.192931
  O     -1.095948    0.680112   -0.280324
  O      0.555819    1.396631    1.114250
  H     -1.140016   -0.767126   -0.899667
  H      0.184768   -1.766156   -1.532895
  H     -0.774418   -2.430712   -0.346920
  H      0.341682   -1.372277    1.379054
  H      2.233564   -0.268108   -0.824313
  H      2.443176   -1.895592   -0.048252
  H      2.315808    0.552394    1.431314

----------------------------
CARTESIAN COORDINATES (A.U.)
----------------------------
  NO LB      ZA    FRAG     MASS         X           Y           Z
   0 N     7.0000    0    14.007   -0.645310   -2.964499   -1.284883
   1 C     6.0000    0    12.011    0.963108   -1.722969    0.716540
   2 C     6.0000    0    12.011   -0.119769    1.130903    0.829165
   3 C     6.0000    0    12.011    3.799363   -1.670659    0.129586
   4 O     8.0000    0    15.999    5.098218   -0.670668    2.254312
   5 O     8.0000    0    15.999   -2.071041    1.285226   -0.529736
   6 O     8.0000    0    15.999    1.050346    2.639250    2.105627
   7 H     1.0000    0     1.008   -2.154317   -1.449658   -1.700124
   8 H     1.0000    0     1.008    0.349161   -3.337551   -2.896751
   9 H     1.0000    0     1.008   -1.463438   -4.593380   -0.655583
  10 H     1.0000    0     1.008    0.645685   -2.593227    2.606034
  11 H     1.0000    0     1.008    4.220824   -0.506650   -1.557725
  12 H     1.0000    0     1.008    4.616933   -3.582150   -0.091183
  13 H     1.0000    0     1.008    4.376244    1.043874    2.704792

--------------------------------
INTERNAL COORDINATES (ANGSTROEM)
--------------------------------
 N      0   0   0     0.000000000000     0.00000000     0.00000000
 C      1   0   0     1.509231396498     0.00000000     0.00000000
 C      2   1   0     1.616364815943   103.45400356     0.00000000
 C      2   1   3     1.532934104629   114.69794548   240.51333663
 O      4   2   1     1.420076310790   108.67430695   185.30690623
 O      3   2   1     1.260940477673   109.25636169     7.37191808
 O      3   2   1     1.215223740438   116.97077255   188.24522140
 H      1   2   3     1.152619232360   102.81118865   352.37937848
 H      1   2   3     1.021498614292   112.30664789   109.86042100
 H      1   2   3     1.020448568504   112.20743996   233.24235826
 H      2   1   3     1.113574416274   111.40823379   115.14465552
 H      4   2   1     1.107430591245   111.75206463    64.37469430
 H      4   2   1     1.106342123944   112.81538573   299.59555188
 H      5   4   2     1.012905755828   109.72842515   304.79687510

---------------------------
INTERNAL COORDINATES (A.U.)
---------------------------
 N      0   0   0     0.000000000000     0.00000000     0.00000000
 C      1   0   0     2.852034012096     0.00000000     0.00000000
 C      2   1   0     3.054486834637   103.45400356     0.00000000
 C      2   1   3     2.896825639097   114.69794548   240.51333663
 O      4   2   1     2.683555316663   108.67430695   185.30690623
 O      3   2   1     2.382832173979   109.25636169     7.37191808
 O      3   2   1     2.296440060866   116.97077255   188.24522140
 H      1   2   3     2.178134685851   102.81118865   352.37937848
 H      1   2   3     1.930352627193   112.30664789   109.86042100
 H      1   2   3     1.928368328225   112.20743996   233.24235826
 H      2   1   3     2.104350676498   111.40823379   115.14465552
 H      4   2   1     2.092740529779   111.75206463    64.37469430
 H      4   2   1     2.090683624675   112.81538573   299.59555188
 H      5   4   2     1.914114477988   109.72842515   304.79687510

---------------------
BASIS SET INFORMATION
---------------------
There are 4 groups of distinct atoms

 Group   1 Type N   : 10s4p contracted to 3s2p pattern {631/31}
 Group   2 Type C   : 10s4p contracted to 3s2p pattern {631/31}
 Group   3 Type O   : 10s4p contracted to 3s2p pattern {631/31}
 Group   4 Type H   : 4s contracted to 2s pattern {31}

Atom   0N    basis set group =>   1
Atom   1C    basis set group =>   2
Atom   2C    basis set group =>   2
Atom   3C    basis set group =>   2
Atom   4O    basis set group =>   3
Atom   5O    basis set group =>   3
Atom   6O    basis set group =>   3
Atom   7H    basis set group =>   4
Atom   8H    basis set group =>   4
Atom   9H    basis set group =>   4
Atom  10H    basis set group =>   4
Atom  11H    basis set group =>   4
Atom  12H    basis set group =>   4
Atom  13H    basis set group =>   4

-------------------------
BASIS SET IN INPUT FORMAT
-------------------------

 # Basis set for element : H 
 NewGTO H 
 S 3 
   1      18.7311370000      0.0334945995
   2       2.8253937000      0.2347269467
   3       0.6401217000      0.8137573184
 S 1 
   1       0.1612778000      1.0000000000
  end;

 # Basis set for element : C 
 NewGTO C 
 S 6 
   1    3047.5249000000      0.0018347002
   2     457.3695100000      0.0140373012
   3     103.9486900000      0.0688426061
   4      29.2101550000      0.2321844206
   5       9.2866630000      0.4679413416
   6       3.1639270000      0.3623120322
 S 3 
   1       7.8682724000     -0.1193324086
   2       1.8812885000     -0.1608542116
   3       0.5442493000      1.1434564826
 P 3 
   1       7.8682724000      0.0689990956
   2       1.8812885000      0.3164239798
   3       0.5442493000      0.7443082524
 S 1 
   1       0.1687144000      1.0000000000
 P 1 
   1       0.1687144000      1.0000000000
  end;

 # Basis set for element : N 
 NewGTO N 
 S 6 
   1    4173.5110000000      0.0018347994
   2     627.4579000000      0.0139949958
   3     142.9021000000      0.0685869792
   4      40.2343300000      0.2322409295
   5      12.8202100000      0.4690698576
   6       4.3904370000      0.3604548906
 S 3 
   1      11.6263580000     -0.1149610229
   2       2.7162800000     -0.1691180337
   3       0.7722180000      1.1458522281
 P 3 
   1      11.6263580000      0.0675800232
   2       2.7162800000      0.3239071114
   3       0.7722180000      0.7408952549
 S 1 
   1       0.2120313000      1.0000000000
 P 1 
   1       0.2120313000      1.0000000000
  end;

 # Basis set for element : O 
 NewGTO O 
 S 6 
   1    5484.6717000000      0.0018310998
   2     825.2349500000      0.0139500985
   3     188.0469600000      0.0684450927
   4      52.9645000000      0.2327142753
   5      16.8975700000      0.4701929501
   6       5.7996353000      0.3585208619
 S 3 
   1      15.5396160000     -0.1107775038
   2       3.5999336000     -0.1480263051
   3       1.0137618000      1.1307670390
 P 3 
   1      15.5396160000      0.0708742995
   2       3.5999336000      0.3397527978
   3       1.0137618000      0.7271585953
 S 1 
   1       0.2700058000      1.0000000000
 P 1 
   1       0.2700058000      1.0000000000
  end;

------------------------------------------------------------------------------
                           ORCA GTO INTEGRAL CALCULATION
------------------------------------------------------------------------------

                         BASIS SET STATISTICS AND STARTUP INFO

 # of primitive gaussian shells          ...  126
 # of primitive gaussian functions       ...  182
 # of contracted shells                  ...   49
 # of contracted basis functions         ...   77
 Highest angular momentum                ...    1
 Maximum contraction depth               ...    6
 Integral package used                   ... LIBINT
 Integral threshhold            Thresh   ...  2.500e-11
 Primitive cut-off              TCut     ...  2.500e-12


------------------------------ INTEGRAL EVALUATION ----------------------------


 * One electron integrals 
 Pre-screening matrix                    ... done
 Shell pair data                         ... done (   0.001 sec)

-------------------------------------------------------------------------------
                                 ORCA SCF
-------------------------------------------------------------------------------

------------
SCF SETTINGS
------------
Hamiltonian:
 Density Functional     Method          .... DFT(GTOs)
 Exchange Functional    Exchange        .... B88
   X-Alpha parameter    XAlpha          ....  0.666667
   Becke's b parameter  XBeta           ....  0.004200
 Correlation Functional Correlation     .... LYP
 LDA part of GGA corr.  LDAOpt          .... VWN-5
 Gradients option       PostSCFGGA      .... off
 Hybrid DFT is turned on
   Fraction HF Exchange ScalHFX         ....  0.200000
   Scaling of DF-GGA-X  ScalDFX         ....  0.720000
   Scaling of DF-GGA-C  ScalDFC         ....  0.810000
   Scaling of DF-LDA-C  ScalLDAC        ....  1.000000
   Perturbative correction              ....  0.000000
   NL short-range parameter             ....  4.800000


General Settings:
 Integral files         IntName         .... orca_input
 Hartree-Fock type      HFTyp           .... RHF
 Total Charge           Charge          ....    0
 Multiplicity           Mult            ....    1
 Number of Electrons    NEL             ....   56
 Basis Dimension        Dim             ....   77
 Nuclear Repulsion      ENuc            ....    326.8104112484 Eh

Convergence Acceleration:
 DIIS                   CNVDIIS         .... on
   Start iteration      DIISMaxIt       ....    12
   Startup error        DIISStart       ....  0.200000
   # of expansion vecs  DIISMaxEq       ....     5
   Bias factor          DIISBfac        ....   1.050
   Max. coefficient     DIISMaxC        ....  10.000
 Newton-Raphson         CNVNR           .... off
 SOSCF                  CNVSOSCF        .... on
   Start iteration      SOSCFMaxIt      ....   150
   Startup grad/error   SOSCFStart      ....  0.003300
 Level Shifting         CNVShift        .... on
   Level shift para.    LevelShift      ....    0.2500
   Turn off err/grad.   ShiftErr        ....    0.0010
 Zerner damping         CNVZerner       .... off
 Static damping         CNVDamp         .... on
   Fraction old density DampFac         ....    0.7000
   Max. Damping (<1)    DampMax         ....    0.9800
   Min. Damping (>=0)   DampMin         ....    0.0000
   Turn off err/grad.   DampErr         ....    0.1000
 Fernandez-Rico         CNVRico         .... off

SCF Procedure:
 Maximum # iterations   MaxIter         ....   125
 SCF integral mode      SCFMode         .... Direct
   Integral package                     .... LIBINT
 Reset frequeny         DirectResetFreq ....    20
 Integral Threshold     Thresh          ....  2.500e-11 Eh
 Primitive CutOff       TCut            ....  2.500e-12 Eh

Convergence Tolerance:
 Convergence Check Mode ConvCheckMode   .... Total+1el-Energy
 Convergence forced     ConvForced      .... 0
 Energy Change          TolE            ....  1.000e-08 Eh
 1-El. energy change                    ....  1.000e-05 Eh
 Orbital Gradient       TolG            ....  1.000e-05
 Orbital Rotation angle TolX            ....  1.000e-05
 DIIS Error             TolErr          ....  5.000e-07


Diagonalization of the overlap matrix:
Smallest eigenvalue                        ... 4.843e-03
Time for diagonalization                   ...    0.001 sec
Threshold for overlap eigenvalues          ... 1.000e-08
Number of eigenvalues below threshold      ... 0
Time for construction of square roots      ...    0.000 sec
Total time needed                          ...    0.001 sec

-------------------
DFT GRID GENERATION
-------------------

General Integration Accuracy     IntAcc      ...  4.340
Radial Grid Type                 RadialGrid  ... Gauss-Chebyshev
Angular Grid (max. acc.)         AngularGrid ... Lebedev-110
Angular grid pruning method      GridPruning ... 3 (G Style)
Weight generation scheme         WeightScheme... Becke
Basis function cutoff            BFCut       ...    1.0000e-11
Integration weight cutoff        WCut        ...    1.0000e-14
Grids for H and He will be reduced by one unit

# of grid points (after initial pruning)     ...  17376 (   0.0 sec)
# of grid points (after weights+screening)   ...  16226 (   0.0 sec)
nearest neighbour list constructed           ...    0.0 sec
Grid point re-assignment to atoms done       ...    0.0 sec
Grid point division into batches done        ...    0.0 sec
Reduced shell lists constructed in    0.2 sec

Total number of grid points                  ...    16226
Total number of batches                      ...      261
Average number of points per batch           ...       62
Average number of grid points per atom       ...     1159
Average number of shells per batch           ...    37.24 (76.00%)
Average number of basis functions per batch  ...    61.05 (79.29%)
Average number of large shells per batch     ...    30.39 (81.59%)
Average number of large basis fcns per batch ...    50.61 (82.89%)
Maximum spatial batch extension              ...  18.49, 20.25, 20.95 au
Average spatial batch extension              ...   3.79,  3.67,  3.72 au

Time for grid setup =    0.212 sec

------------------------------
INITIAL GUESS: MODEL POTENTIAL
------------------------------
Loading Hartree-Fock densities                     ... done
Calculating cut-offs                               ... done
Setting up the integral package                    ... done
Initializing the effective Hamiltonian             ... done
Starting the Coulomb interaction                   ... done (   0.1 sec)
Reading the grid                                   ... done
Mapping shells                                     ... done
Starting the XC term evaluation                    ... done (   0.2 sec)
  promolecular density results
     # of electrons  =     55.989159339
     EX              =    -48.653844216
     EC              =     -1.940663672
     EX+EC           =    -50.594507888
Transforming the Hamiltonian                       ... done (   0.0 sec)
Diagonalizing the Hamiltonian                      ... done (   0.0 sec)
Back transforming the eigenvectors                 ... done (   0.0 sec)
Now organizing SCF variables                       ... done
                      ------------------
                      INITIAL GUESS DONE (   0.6 sec)
                      ------------------
--------------
SCF ITERATIONS
--------------
ITER       Energy         Delta-E        Max-DP      RMS-DP      [F,P]     Damp
               ***  Starting incremental Fock matrix formation  ***
  0   -398.2896508662   0.000000000000 0.17784470  0.00712332  0.2780250 0.7000
  1   -398.4333964131  -0.143745546947 0.12259937  0.00469379  0.1092938 0.7000
                               ***Turning on DIIS***
  2   -398.4819029797  -0.048506566559 0.14249461  0.00656718  0.0310737 0.0000
  3   -398.5677409712  -0.085837991481 0.08395728  0.00300473  0.0626795 0.0000
  4   -398.5830691941  -0.015328222969 0.01612261  0.00093218  0.0119440 0.0000
                      *** Initiating the SOSCF procedure ***
                           *** Shutting down DIIS ***
                      *** Re-Reading the Fockian *** 
                      *** Removing any level shift *** 
ITER      Energy       Delta-E        Grad      Rot      Max-DP    RMS-DP
  5   -398.58411700  -0.0010478081  0.001183  0.001183  0.006115  0.000325
               *** Restarting incremental Fock matrix formation ***
  6   -398.58416726  -0.0000502607  0.000534  0.002058  0.004528  0.000205
  7   -398.58416960  -0.0000023395  0.000597  0.000954  0.001457  0.000089
  8   -398.58417536  -0.0000057606  0.000342  0.000563  0.001318  0.000066
  9   -398.58417532   0.0000000458  0.000294  0.000193  0.000519  0.000026
 10   -398.58417683  -0.0000015151  0.000039  0.000168  0.000446  0.000019
 11   -398.58417688  -0.0000000428  0.000020  0.000026  0.000073  0.000004
 12   -398.58417689  -0.0000000189  0.000011  0.000030  0.000093  0.000004
 13   -398.58417690  -0.0000000028  0.000008  0.000009  0.000032  0.000002
 14   -398.58417690  -0.0000000011  0.000003  0.000008  0.000022  0.000001
                  ***Gradient check signals convergence***
              ***Rediagonalizing the Fockian in SOSCF/NRSCF***

               *****************************************************
               *                     SUCCESS                       *
               *           SCF CONVERGED AFTER  15 CYCLES          *
               *****************************************************

Setting up the final grid:

General Integration Accuracy     IntAcc      ...  4.670
Radial Grid Type                 RadialGrid  ... Gauss-Chebyshev
Angular Grid (max. acc.)         AngularGrid ... Lebedev-302
Angular grid pruning method      GridPruning ... 3 (G Style)
Weight generation scheme         WeightScheme... Becke
Basis function cutoff            BFCut       ...    1.0000e-11
Integration weight cutoff        WCut        ...    1.0000e-14
Grids for H and He will be reduced by one unit

# of grid points (after initial pruning)     ...  67242 (   0.0 sec)
# of grid points (after weights+screening)   ...  61807 (   0.1 sec)
nearest neighbour list constructed           ...    0.0 sec
Grid point re-assignment to atoms done       ...    0.0 sec
Grid point division into batches done        ...    0.2 sec
Reduced shell lists constructed in    0.8 sec

Total number of grid points                  ...    61807
Total number of batches                      ...      974
Average number of points per batch           ...       63
Average number of grid points per atom       ...     4415
Average number of shells per batch           ...    34.27 (69.94%)
Average number of basis functions per batch  ...    56.41 (73.26%)
Average number of large shells per batch     ...    27.35 (79.81%)
Average number of large basis fcns per batch ...    45.70 (81.02%)
Maximum spatial batch extension              ...  20.06, 20.57, 21.69 au
Average spatial batch extension              ...   2.55,  2.49,  2.55 au

Final grid set up in    0.9 sec
Final integration                            ... done (   0.6 sec)
Change in XC energy                          ...    -0.000793414
Integrated number of electrons               ...    55.999919391
Previous integrated no of electrons          ...    55.995161521

----------------
TOTAL SCF ENERGY
----------------

Total Energy       :         -398.58497031 Eh          -10846.04844 eV

Components:
Nuclear Repulsion  :          326.81041125 Eh            8892.96340 eV
Electronic Energy  :         -725.39538156 Eh          -19739.01184 eV
One Electron Energy:        -1192.59971517 Eh          -32452.28809 eV
Two Electron Energy:          467.20433361 Eh           12713.27625 eV

Virial components:
Potential Energy   :         -795.30348785 Eh          -21641.30813 eV
Kinetic Energy     :          396.71851754 Eh           10795.25968 eV
Virial Ratio       :            2.00470473


DFT components:
N(Alpha)           :       27.999959695252 electrons
N(Beta)            :       27.999959695252 electrons
N(Total)           :       55.999919390504 electrons
E(X)               :      -39.239558865388 Eh       
E(C)               :       -2.286799736067 Eh       
E(XC)              :      -41.526358601455 Eh       

---------------
SCF CONVERGENCE
---------------

  Last Energy change         ...   -2.4130e-10  Tolerance :   1.0000e-08
  Last MAX-Density change    ...    1.4757e-05  Tolerance :   1.0000e-07
  Last RMS-Density change    ...    6.3882e-07  Tolerance :   5.0000e-09
  Last Orbital Gradient      ...    2.0563e-06  Tolerance :   1.0000e-05
  Last Orbital Rotation      ...    4.8853e-06  Tolerance :   1.0000e-05

             **** THE GBW FILE WAS UPDATED (orca_input.gbw) ****
             **** DENSITY FILE WAS UPDATED (orca_input.scfp.tmp) ****
             **** ENERGY FILE WAS UPDATED (orca_input.en.tmp) ****
----------------
ORBITAL ENERGIES
----------------

  NO   OCC          E(Eh)            E(eV) 
   0   2.0000     -19.127418      -520.4835 
   1   2.0000     -19.106296      -519.9087 
   2   2.0000     -19.098782      -519.7043 
   3   2.0000     -14.457721      -393.4146 
   4   2.0000     -10.287635      -279.9408 
   5   2.0000     -10.252533      -278.9856 
   6   2.0000     -10.250548      -278.9316 
   7   2.0000      -1.068994       -29.0888 
   8   2.0000      -1.014165       -27.5968 
   9   2.0000      -1.012598       -27.5542 
  10   2.0000      -0.975340       -26.5403 
  11   2.0000      -0.766416       -20.8552 
  12   2.0000      -0.662983       -18.0407 
  13   2.0000      -0.611394       -16.6369 
  14   2.0000      -0.578305       -15.7365 
  15   2.0000      -0.529306       -14.4032 
  16   2.0000      -0.511112       -13.9081 
  17   2.0000      -0.498335       -13.5604 
  18   2.0000      -0.438773       -11.9396 
  19   2.0000      -0.430661       -11.7189 
  20   2.0000      -0.410641       -11.1741 
  21   2.0000      -0.400676       -10.9029 
  22   2.0000      -0.386437       -10.5155 
  23   2.0000      -0.323130        -8.7928 
  24   2.0000      -0.264525        -7.1981 
  25   2.0000      -0.257678        -7.0118 
  26   2.0000      -0.255459        -6.9514 
  27   2.0000      -0.230148        -6.2626 
  28   0.0000       0.000166         0.0045 
  29   0.0000       0.041234         1.1220 
  30   0.0000       0.062943         1.7128 
  31   0.0000       0.094889         2.5821 
  32   0.0000       0.101608         2.7649 
  33   0.0000       0.124822         3.3966 
  34   0.0000       0.137023         3.7286 
  35   0.0000       0.143860         3.9146 
  36   0.0000       0.165838         4.5127 
  37   0.0000       0.219995         5.9864 
  38   0.0000       0.239458         6.5160 
  39   0.0000       0.247103         6.7240 
  40   0.0000       0.346255         9.4221 
  41   0.0000       0.443679        12.0731 
  42   0.0000       0.518332        14.1045 
  43   0.0000       0.545491        14.8436 
  44   0.0000       0.561163        15.2700 
  45   0.0000       0.590288        16.0626 
  46   0.0000       0.629745        17.1362 
  47   0.0000       0.650002        17.6874 
  48   0.0000       0.669585        18.2203 
  49   0.0000       0.700351        19.0575 
  50   0.0000       0.719832        19.5876 
  51   0.0000       0.756012        20.5721 
  52   0.0000       0.788901        21.4671 
  53   0.0000       0.795952        21.6590 
  54   0.0000       0.808640        22.0042 
  55   0.0000       0.825299        22.4575 
  56   0.0000       0.835915        22.7464 
  57   0.0000       0.864109        23.5136 
  58   0.0000       0.878727        23.9114 
  59   0.0000       0.883117        24.0308 
  60   0.0000       0.909219        24.7411 
  61   0.0000       0.967905        26.3380 
  62   0.0000       0.983812        26.7709 
  63   0.0000       1.008340        27.4383 
  64   0.0000       1.044699        28.4277 
  65   0.0000       1.085849        29.5475 
  66   0.0000       1.110596        30.2209 
  67   0.0000       1.170325        31.8462 
  68   0.0000       1.181034        32.1376 
  69   0.0000       1.271563        34.6010 
  70   0.0000       1.363394        37.0998 
  71   0.0000       1.384424        37.6721 
  72   0.0000       1.456875        39.6436 
  73   0.0000       1.718156        46.7534 
  74   0.0000       1.798494        48.9395 
  75   0.0000       1.898261        51.6543 
  76   0.0000       2.027767        55.1783 
------------------
MOLECULAR ORBITALS
------------------
                      0         1         2         3         4         5   
                 -19.12742 -19.10630 -19.09878 -14.45772 -10.28763 -10.25253
                   2.00000   2.00000   2.00000   2.00000   2.00000   2.00000
                  --------  --------  --------  --------  --------  --------
  0N   1s        -0.000034  0.000018  0.000018  0.995306  0.000055 -0.000031
  0N   2s        -0.000365  0.000346  0.000270  0.033001  0.000717 -0.001040
  0N   1pz       -0.000067  0.000087  0.000096  0.000008  0.000027 -0.000272
  0N   1px       -0.000100  0.000013  0.000033  0.000272  0.000106 -0.000286
  0N   1py       -0.000034  0.000131  0.000163 -0.000307  0.000156 -0.000233
  0N   3s         0.001598 -0.001827  0.000543 -0.025843 -0.001762  0.008177
  0N   2pz        0.000703 -0.001267  0.000085 -0.001923  0.000012  0.002402
  0N   2px        0.001032 -0.001303  0.000452 -0.001801 -0.000895  0.003090
  0N   2py        0.000416 -0.000260 -0.000923 -0.001590 -0.000956  0.002496
  1C   1s         0.000018 -0.000010  0.000023 -0.000122 -0.000819  0.995114
  1C   2s        -0.000231  0.000170  0.000484 -0.001662  0.000476  0.039456
  1C   1pz       -0.000193  0.000109 -0.000042  0.000068  0.000027 -0.000606
  1C   1px       -0.000434 -0.000056 -0.000084 -0.000043 -0.000163 -0.000267
  1C   1py       -0.000123  0.000185  0.000129 -0.000104  0.000312 -0.000289
  1C   3s        -0.002185  0.001408 -0.001751  0.010755 -0.003188 -0.043623
  1C   2pz        0.001557 -0.003188  0.001908 -0.004312 -0.001407  0.004177
  1C   2px        0.000162 -0.002648  0.002027 -0.002498  0.003119 -0.000056
  1C   2py        0.000799 -0.000917 -0.000007 -0.001344 -0.003778 -0.003121
  2C   1s         0.000033 -0.000163 -0.000250 -0.000013 -0.995086 -0.000845
  2C   2s         0.000338  0.000081 -0.000225 -0.000477 -0.034809 -0.001436
  2C   1pz       -0.000098  0.000098  0.000024  0.000130  0.000011 -0.000012
  2C   1px        0.000046  0.000066  0.000114  0.000052 -0.000152  0.000086
  2C   1py       -0.000100  0.000051  0.000021  0.000203 -0.000200 -0.000060
  2C   3s        -0.001527 -0.009006 -0.009653 -0.002922  0.016248  0.010346
  2C   2pz       -0.000702  0.007693 -0.007812  0.000637 -0.000357 -0.001728
  2C   2px       -0.001233  0.010054 -0.007948  0.000360  0.002604  0.001784
  2C   2py       -0.000315  0.001282 -0.008026  0.000400 -0.006621 -0.006576
  3C   1s        -0.000107  0.000026 -0.000034  0.000023  0.000543  0.033095
  3C   2s        -0.001363  0.000220 -0.000239 -0.000134  0.001206 -0.000314
  3C   1pz        0.000317  0.000057  0.000107 -0.000000  0.000029 -0.000071
  3C   1px        0.000284 -0.000006  0.000103  0.000219 -0.000322  0.000168
  3C   1py        0.000128  0.000146 -0.000113  0.000070  0.000318 -0.000018
  3C   3s         0.009339  0.000030  0.000124 -0.001558 -0.004070  0.010042
  3C   2pz        0.003119  0.000846 -0.000884  0.000191 -0.000898 -0.000394
  3C   2px        0.001123  0.000073 -0.000534  0.000988  0.002377 -0.005983
  3C   2py        0.002134 -0.001135  0.001501 -0.000278 -0.001879  0.000627
  4O   1s         0.995116  0.000066  0.000007 -0.000011 -0.000019 -0.000012
  4O   2s         0.029286 -0.000046 -0.000088 -0.000247 -0.000246 -0.000380
  4O   1pz       -0.001218 -0.000027 -0.000029  0.000007  0.000011  0.000090
  4O   1px       -0.001620 -0.000011 -0.000076  0.000095  0.000001  0.000085
  4O   1py        0.000737  0.000011  0.000015  0.000016  0.000028  0.000086
  4O   3s        -0.017929  0.000197  0.000469  0.000587  0.001269  0.000535
  4O   2pz        0.003209  0.000069  0.000161 -0.000095 -0.000441 -0.000234
  4O   2px        0.003431 -0.000077  0.000187 -0.000599 -0.000631 -0.000024
  4O   2py       -0.000453  0.000140 -0.000069 -0.000011 -0.000063 -0.000364
  5O   1s         0.000074 -0.995144 -0.005299 -0.000013  0.000064 -0.000008
  5O   2s         0.000066 -0.030199  0.000558 -0.000351  0.000108 -0.000216
  5O   1pz        0.000009 -0.001097  0.000056 -0.000055  0.000242 -0.000097
  5O   1px       -0.000039 -0.001862  0.000071 -0.000154  0.000441 -0.000074
  5O   1py       -0.000008  0.000714 -0.000133  0.000072 -0.000134 -0.000045
  5O   3s        -0.000510  0.023806 -0.004148  0.001113  0.000377 -0.000746
  5O   2pz       -0.000097  0.003667 -0.000126  0.000632  0.001356  0.000356
  5O   2px        0.000056  0.005775 -0.000670  0.001035  0.001175 -0.000105
  5O   2py        0.000098 -0.001499  0.001827  0.000019  0.001177  0.000633
  6O   1s         0.000012  0.005362 -0.995152 -0.000013  0.000148 -0.000021
  6O   2s         0.000031  0.000928 -0.030479 -0.000251  0.000109 -0.000468
  6O   1pz        0.000030 -0.000013  0.001335  0.000006 -0.000214 -0.000008
  6O   1px        0.000107  0.000004  0.001095  0.000009 -0.000176  0.000103
  6O   1py        0.000017 -0.000160  0.001744  0.000037 -0.000427  0.000059
  6O   3s         0.000743 -0.004606  0.025443  0.000803  0.001029  0.001213
  6O   2pz       -0.000364 -0.000029 -0.004082 -0.000257 -0.001542 -0.000061
  6O   2px       -0.000722 -0.000608 -0.003455 -0.000181 -0.001990 -0.000819
  6O   2py       -0.000213  0.001806 -0.005278 -0.000388 -0.000213  0.000138
  7H   1s        -0.000050 -0.000407  0.000206  0.000606  0.000135 -0.000259
  7H   2s         0.000159 -0.001252  0.000152  0.003185  0.000181  0.000535
  8H   1s        -0.000266 -0.000017  0.000032  0.000214  0.000294 -0.000359
  8H   2s         0.000492 -0.000037 -0.000242  0.003470  0.000221  0.000182
  9H   1s        -0.000070  0.000051 -0.000078  0.000195 -0.000016 -0.000170
  9H   2s         0.000191 -0.000138 -0.000221  0.003139 -0.000408  0.001060
 10H   1s        -0.000111  0.000099 -0.000189 -0.000386  0.000352 -0.000068
 10H   2s        -0.000264  0.000702  0.000140 -0.000100 -0.000496  0.005181
 11H   1s        -0.000657  0.000078 -0.000331  0.000152  0.000561 -0.000580
 11H   2s        -0.000758  0.000842 -0.000382 -0.000086 -0.000151 -0.000344
 12H   1s        -0.000479 -0.000092  0.000184  0.000051  0.000022 -0.000350
 12H   2s        -0.000385 -0.000587  0.000700 -0.000334 -0.001272  0.000561
 13H   1s         0.000577 -0.000032  0.000158 -0.000203 -0.000140 -0.000097
 13H   2s         0.002946 -0.000318 -0.000685  0.000213  0.000279  0.000297
                      6         7         8         9        10        11   
                 -10.25055  -1.06899  -1.01416  -1.01260  -0.97534  -0.76642
                   2.00000   2.00000   2.00000   2.00000   2.00000   2.00000
                  --------  --------  --------  --------  --------  --------
  0N   1s        -0.000017 -0.056501 -0.145110  0.085251 -0.091615  0.050151
  0N   2s        -0.000357  0.117527  0.299241 -0.174312  0.192427 -0.106550
  0N   1pz       -0.000127  0.007245  0.002444  0.000963 -0.004336  0.111079
  0N   1px       -0.000128  0.005343  0.017672 -0.001829  0.014889  0.096227
  0N   1py       -0.000088  0.009844 -0.016045  0.005860 -0.030891  0.100196
  0N   3s         0.000185  0.120402  0.345629 -0.204883  0.228779 -0.169797
  0N   2pz        0.000661  0.000985  0.006980 -0.005686  0.002092  0.042946
  0N   2px       -0.000090 -0.000778  0.007782 -0.005535  0.011583  0.038755
  0N   2py        0.000406  0.002897  0.006658 -0.008583 -0.015328  0.038225
  1C   1s        -0.033168 -0.040942 -0.053311  0.010293 -0.023450 -0.150868
  1C   2s        -0.002316  0.074563  0.104641 -0.019736  0.046702  0.288805
  1C   1pz        0.000215 -0.015431 -0.044434  0.030947 -0.021808 -0.006498
  1C   1px       -0.000469 -0.019194 -0.016147  0.047679 -0.013746  0.054224
  1C   1py        0.000026  0.016711 -0.035609  0.019374 -0.023677  0.005274
  1C   3s         0.008031  0.044456  0.033377  0.004120  0.007512  0.295914
  1C   2pz       -0.001207 -0.002216  0.011292 -0.003272  0.021149 -0.014966
  1C   2px        0.005597 -0.001471  0.004182 -0.001053  0.018590 -0.002568
  1C   2py       -0.000705  0.007206  0.004882 -0.001798  0.002976  0.001402
  2C   1s         0.000364 -0.134334  0.045448 -0.001879  0.010462 -0.020869
  2C   2s        -0.000819  0.273395 -0.093999  0.002307 -0.019034  0.046979
  2C   1pz       -0.000013  0.003568 -0.057878  0.068587  0.158058 -0.006832
  2C   1px       -0.000221 -0.019700 -0.044004  0.079903  0.192132  0.042243
  2C   1py        0.000166  0.069386 -0.082987  0.042955  0.071525 -0.100750
  2C   3s         0.001847  0.024683 -0.008157  0.001888  0.001377  0.020838
  2C   2pz        0.000769 -0.002538  0.009652 -0.005741 -0.033146  0.004736
  2C   2px        0.001558  0.008473  0.009983 -0.006114 -0.040729  0.007718
  2C   2py       -0.000861 -0.028630  0.016969 -0.002638 -0.016695 -0.003798
  3C   1s         0.994837 -0.018169 -0.052849 -0.065770  0.009606 -0.104252
  3C   2s         0.036993  0.035227  0.104717  0.128230 -0.022533  0.207587
  3C   1pz        0.000263  0.011470  0.043543  0.075882 -0.020155 -0.023624
  3C   1px       -0.000145 -0.005441  0.009283  0.044033 -0.021487 -0.101866
  3C   1py        0.000192  0.007777  0.019474  0.040874 -0.012490 -0.025060
  3C   3s        -0.032841  0.010758  0.043473  0.046934 -0.003753  0.181927
  3C   2pz       -0.000706 -0.000214 -0.011799 -0.011737 -0.005441 -0.003874
  3C   2px        0.002914 -0.001796 -0.010309 -0.009920 -0.003672 -0.012884
  3C   2py       -0.000061 -0.000954 -0.007783  0.001053  0.013184 -0.004850
  4O   1s         0.000017 -0.025530 -0.099525 -0.164770  0.042684  0.062640
  4O   2s        -0.000497  0.055125  0.216656  0.356913 -0.092842 -0.138954
  4O   1pz        0.000358 -0.010341 -0.039434 -0.061257  0.015639 -0.033976
  4O   1px        0.000157 -0.015540 -0.050019 -0.081040  0.018122 -0.006681
  4O   1py        0.000247  0.005771  0.017378  0.035172 -0.007786 -0.066953
  4O   3s         0.003798  0.056220  0.229894  0.380134 -0.103368 -0.181909
  4O   2pz       -0.000867 -0.005405 -0.023744 -0.036567  0.008202 -0.004384
  4O   2px       -0.000554 -0.007464 -0.025805 -0.048570  0.011251  0.003389
  4O   2py       -0.000795  0.003826  0.009115  0.016704 -0.006995 -0.025623
  5O   1s        -0.000010 -0.118981  0.002784  0.055366  0.146869  0.024498
  5O   2s        -0.000119  0.256443 -0.006972 -0.120543 -0.318346 -0.055850
  5O   1pz       -0.000077  0.060572 -0.011652 -0.019177 -0.061276 -0.002908
  5O   1px        0.000063  0.095345 -0.007444 -0.036523 -0.098953  0.001713
  5O   1py       -0.000032 -0.020578 -0.016286  0.020154  0.029409 -0.011953
  5O   3s         0.000835  0.259078 -0.002585 -0.119832 -0.343493 -0.061546
  5O   2pz        0.000411  0.024262 -0.006031 -0.004510 -0.022161 -0.000780
  5O   2px       -0.000042  0.042093 -0.006059 -0.012288 -0.041959  0.001035
  5O   2py        0.000132 -0.014518 -0.007286  0.011565  0.024170 -0.002633
  6O   1s         0.000009 -0.121024  0.089616 -0.056065 -0.111413  0.024796
  6O   2s         0.000085  0.263646 -0.196632  0.120686  0.244138 -0.055060
  6O   1pz        0.000104 -0.071199  0.048542 -0.025458 -0.050097  0.007202
  6O   1px       -0.000050 -0.062591  0.044778 -0.016065 -0.037824  0.015355
  6O   1py        0.000029 -0.083920  0.057012 -0.038654 -0.074676 -0.010093
  6O   3s        -0.000997  0.253806 -0.191662  0.118674  0.247537 -0.068460
  6O   2pz       -0.000232 -0.027870  0.017505 -0.006011 -0.014706  0.002406
  6O   2px       -0.000024 -0.022340  0.015599  0.002185 -0.008551  0.004065
  6O   2py        0.000381 -0.031714  0.021645 -0.015049 -0.026575 -0.001605
  7H   1s        -0.000050  0.036214  0.056253 -0.042477  0.012878 -0.037910
  7H   2s         0.000153 -0.004753 -0.007666  0.002805 -0.010182 -0.008409
  8H   1s        -0.000073  0.030095  0.089289 -0.049843  0.062421 -0.065744
  8H   2s         0.000667 -0.002944 -0.004502 -0.002313 -0.001346 -0.010046
  9H   1s         0.000017  0.028849  0.087728 -0.051495  0.062351 -0.079449
  9H   2s        -0.000134 -0.002371 -0.000637 -0.001448 -0.001547 -0.016221
 10H   1s        -0.000218  0.012622  0.019458 -0.001111  0.008649  0.090949
 10H   2s         0.000405  0.000748 -0.000173  0.002468 -0.001844  0.014169
 11H   1s        -0.000352  0.006258  0.017962  0.021323 -0.004280  0.062007
 11H   2s         0.005633  0.003117  0.000686 -0.002426 -0.005776  0.007741
 12H   1s        -0.000380  0.005262  0.018380  0.021956 -0.002423  0.062266
 12H   2s         0.005520  0.001087  0.001885  0.005358  0.006964  0.008149
 13H   1s         0.000088  0.018615  0.053400  0.096347 -0.019997 -0.065887
 13H   2s         0.000935 -0.003068 -0.007852 -0.006417  0.009113 -0.012243
                     12        13        14        15        16        17   
                  -0.66298  -0.61139  -0.57831  -0.52931  -0.51111  -0.49834
                   2.00000   2.00000   2.00000   2.00000   2.00000   2.00000
                  --------  --------  --------  --------  --------  --------
  0N   1s        -0.006859  0.003914 -0.014392  0.016402 -0.003639 -0.014731
  0N   2s         0.016857 -0.004328  0.026157 -0.034806  0.008051  0.033518
  0N   1pz       -0.202833  0.283909  0.069365 -0.252098  0.177172  0.071912
  0N   1px        0.036932 -0.209704 -0.324958 -0.208872  0.022961  0.115101
  0N   1py       -0.110640 -0.299709  0.270131 -0.190439 -0.074653  0.026208
  0N   3s         0.018676 -0.035344  0.078890 -0.088817  0.018514  0.073330
  0N   2pz       -0.103821  0.148984  0.035629 -0.167146  0.107126  0.042204
  0N   2px        0.027406 -0.109844 -0.199934 -0.144406  0.024637  0.055778
  0N   2py       -0.061682 -0.171960  0.176450 -0.116286 -0.038834  0.019894
  1C   1s         0.077967  0.002123  0.036904 -0.006533  0.021319  0.023689
  1C   2s        -0.150328 -0.004277 -0.069414  0.006604 -0.039834 -0.044984
  1C   1pz       -0.043304  0.107490 -0.033941  0.174993 -0.206467 -0.076371
  1C   1px        0.156568  0.001150 -0.061500  0.100695 -0.013977 -0.201886
  1C   1py       -0.012849 -0.087313  0.083806  0.250065  0.081900  0.071919
  1C   3s        -0.192667  0.000180 -0.117910  0.070411 -0.090643 -0.082422
  1C   2pz       -0.015383  0.022149 -0.003456  0.027714 -0.086023 -0.032648
  1C   2px        0.024530 -0.014524 -0.013222  0.004585 -0.000129 -0.063576
  1C   2py       -0.010186 -0.040520  0.020758  0.080891  0.043911  0.025944
  2C   1s         0.022124  0.007130  0.014789 -0.073043 -0.021979 -0.094757
  2C   2s        -0.045257 -0.012221 -0.043883  0.162721  0.049706  0.232594
  2C   1pz       -0.012950  0.018804  0.023946  0.004879 -0.090771 -0.016795
  2C   1px       -0.033315 -0.047428  0.070014  0.078261  0.020019 -0.057332
  2C   1py        0.116694  0.052975 -0.049292 -0.157783 -0.016801 -0.018044
  2C   3s        -0.030764 -0.009609 -0.016119  0.141626  0.050926  0.186934
  2C   2pz       -0.002237  0.015083 -0.021446  0.006355 -0.026501 -0.016641
  2C   2px       -0.002729 -0.002226 -0.010388  0.043207  0.027802 -0.017820
  2C   2py        0.025702  0.017377 -0.034752 -0.067019 -0.007449 -0.057432
  3C   1s        -0.128713 -0.029640 -0.042889 -0.005723 -0.019281  0.014152
  3C   2s         0.258385  0.063001  0.085929  0.010405  0.031708 -0.021957
  3C   1pz       -0.056048  0.030507 -0.028280  0.034875 -0.256750  0.046384
  3C   1px        0.057357  0.044256  0.105019 -0.064342 -0.048332  0.215921
  3C   1py       -0.038509 -0.039785  0.022563  0.117210  0.155403 -0.000573
  3C   3s         0.284929  0.073532  0.115917  0.018180  0.059578 -0.037503
  3C   2pz       -0.032755  0.016027 -0.010371  0.021565 -0.097015  0.015315
  3C   2px       -0.013818  0.014330  0.021493 -0.018198 -0.027383  0.085077
  3C   2py       -0.018853 -0.008713  0.016290  0.050845  0.075676 -0.014775
  4O   1s         0.041276  0.009655  0.012491  0.020363  0.012907 -0.026029
  4O   2s        -0.093282 -0.020020 -0.025343 -0.048000 -0.031490  0.061604
  4O   1pz       -0.106928 -0.045732 -0.087791 -0.023228  0.057073 -0.136617
  4O   1px        0.004376 -0.001582  0.012602 -0.058230  0.023331  0.078618
  4O   1py       -0.121396 -0.071041 -0.075747  0.011155  0.243048 -0.186136
  4O   3s        -0.126743 -0.041054 -0.055284 -0.066325 -0.035292  0.088411
  4O   2pz       -0.044673 -0.014171 -0.037979 -0.005149  0.019833 -0.066266
  4O   2px        0.007467  0.001318  0.011209 -0.036058  0.013493  0.048605
  4O   2py       -0.054137 -0.029532 -0.036983  0.010946  0.124156 -0.092184
  5O   1s        -0.027868 -0.015038  0.011271  0.030698  0.016837  0.072159
  5O   2s         0.066064  0.036315 -0.030575 -0.070535 -0.037530 -0.156718
  5O   1pz        0.003920  0.033192 -0.079023  0.024399  0.015974  0.148141
  5O   1px        0.001771 -0.003465 -0.054459  0.052214  0.074826  0.171009
  5O   1py        0.040616  0.035589 -0.098656 -0.043699  0.017075  0.017198
  5O   3s         0.073884  0.043498 -0.032476 -0.089532 -0.056871 -0.272820
  5O   2pz        0.000035  0.016527 -0.036531  0.017375  0.007984  0.068663
  5O   2px       -0.000519 -0.004105 -0.022090  0.027677  0.034774  0.073040
  5O   2py        0.018306  0.017283 -0.051727 -0.011927  0.010351  0.020122
  6O   1s        -0.014173 -0.002586 -0.014977  0.052646  0.010624  0.047850
  6O   2s         0.034944  0.008651  0.029654 -0.122361 -0.025459 -0.104961
  6O   1pz       -0.016706  0.000845  0.006795 -0.022333 -0.034619 -0.074078
  6O   1px       -0.022611 -0.023791  0.019969  0.018620  0.044496 -0.117600
  6O   1py        0.022703  0.010953 -0.008693 -0.108629  0.001826 -0.062193
  6O   3s         0.029417 -0.006102  0.074438 -0.168921 -0.033916 -0.154701
  6O   2pz       -0.004193  0.003155 -0.002747 -0.011133 -0.018630 -0.039686
  6O   2px       -0.007601 -0.007874  0.002875  0.007668  0.022797 -0.069511
  6O   2py        0.011234  0.008135 -0.009871 -0.049931  0.001965 -0.020074
  7H   1s        -0.020592 -0.056807  0.216749  0.016077 -0.062610 -0.074312
  7H   2s         0.003286 -0.015076  0.087294 -0.000471 -0.048167 -0.103574
  8H   1s         0.120809 -0.170661 -0.151332  0.071851 -0.076305  0.012612
  8H   2s         0.044214 -0.072337 -0.067083  0.040405 -0.038227  0.004029
  9H   1s         0.010976  0.247966 -0.023400  0.092085  0.080795 -0.016513
  9H   2s         0.001311  0.104272 -0.008347  0.051551  0.045699 -0.014442
 10H   1s        -0.081885  0.058141 -0.059335  0.028495 -0.141001 -0.063341
 10H   2s        -0.029092  0.034397 -0.030414  0.016170 -0.082395 -0.036665
 11H   1s         0.109693  0.005757  0.061065  0.019033  0.168308 -0.011880
 11H   2s         0.034066 -0.005374  0.024152  0.007659  0.103062 -0.002517
 12H   1s         0.121500  0.045749  0.045201 -0.062730 -0.048903  0.026794
 12H   2s         0.040894  0.020185  0.018651 -0.040173 -0.025722  0.013614
 13H   1s        -0.094427 -0.045580 -0.055247 -0.002222  0.117876 -0.124190
 13H   2s        -0.026103 -0.019663 -0.015380 -0.014549  0.055153 -0.078842
                     18        19        20        21        22        23   
                  -0.43877  -0.43066  -0.41064  -0.40068  -0.38644  -0.32313
                   2.00000   2.00000   2.00000   2.00000   2.00000   2.00000
                  --------  --------  --------  --------  --------  --------
  0N   1s        -0.010718  0.004350 -0.014838  0.004576  0.008399  0.015910
  0N   2s         0.022685 -0.004294  0.035237 -0.004290 -0.014576 -0.027851
  0N   1pz        0.099412  0.014210 -0.032386  0.060320 -0.064244 -0.044331
  0N   1px        0.027938  0.163981 -0.084898  0.086725 -0.011926 -0.064350
  0N   1py       -0.000249 -0.066722  0.151455 -0.047450  0.001937 -0.047171
  0N   3s         0.066870 -0.044242  0.065777 -0.033001 -0.075018 -0.146558
  0N   2pz        0.060551  0.022711 -0.034862  0.063253 -0.068965 -0.055896
  0N   2px        0.030556  0.120805 -0.083355  0.100173 -0.013501 -0.070221
  0N   2py        0.007294 -0.055011  0.095890 -0.056873  0.008768 -0.058286
  1C   1s        -0.007379 -0.004936 -0.010299  0.004362 -0.009417 -0.037236
  1C   2s         0.020905  0.009575  0.016235 -0.005209  0.014509  0.056679
  1C   1pz       -0.169990  0.076305  0.088208 -0.049532  0.190589 -0.020818
  1C   1px        0.141907 -0.154493  0.053908 -0.034663 -0.116484  0.111568
  1C   1py        0.027138  0.005106 -0.156229  0.029177 -0.077812  0.053365
  1C   3s         0.008686  0.022757  0.063020 -0.039690  0.054362  0.259166
  1C   2pz       -0.068331  0.041885  0.038835  0.003108  0.070010 -0.125806
  1C   2px        0.089237 -0.101111  0.011970  0.023918 -0.077793  0.048469
  1C   2py        0.028367  0.024938 -0.081370  0.029227 -0.081525  0.073036
  2C   1s         0.014268  0.045306 -0.004541 -0.015371  0.002366  0.012781
  2C   2s        -0.029839 -0.118330  0.040784  0.037916 -0.007531 -0.025503
  2C   1pz       -0.140146  0.089617  0.126311  0.212304 -0.245601 -0.007533
  2C   1px        0.122162  0.005604 -0.100084  0.295432  0.164760 -0.018774
  2C   1py        0.097842 -0.137348  0.290098  0.054212  0.097979 -0.025571
  2C   3s        -0.032660 -0.102972 -0.007434  0.028554  0.022430 -0.062338
  2C   2pz       -0.077532  0.055593  0.044261  0.015153 -0.143032 -0.001991
  2C   2px        0.048480 -0.006021 -0.062009  0.041632  0.105447 -0.052072
  2C   2py        0.053385  0.001387  0.115951 -0.028344  0.052961  0.039686
  3C   1s         0.005028  0.007501 -0.009522  0.011795  0.018176  0.017665
  3C   2s         0.000257 -0.013271  0.020927 -0.029498 -0.040846 -0.036912
  3C   1pz        0.256356 -0.002918 -0.038403 -0.049466 -0.092467 -0.137114
  3C   1px       -0.138933  0.165048 -0.061121  0.033950  0.148042 -0.162033
  3C   1py        0.153154  0.289180  0.203264 -0.064460  0.004158  0.079304
  3C   3s        -0.043661 -0.004312  0.032138 -0.032807 -0.052268 -0.064332
  3C   2pz        0.106954 -0.009918 -0.023457 -0.025495 -0.023214 -0.008276
  3C   2px       -0.054900  0.051679 -0.021584  0.024955  0.071652  0.020702
  3C   2py        0.075558  0.135454  0.095684 -0.020378  0.027067 -0.025774
  4O   1s         0.002942  0.011409  0.007575 -0.018087 -0.004238 -0.069646
  4O   2s        -0.004047 -0.023269 -0.020702  0.038776  0.011052  0.159819
  4O   1pz       -0.140455 -0.252064 -0.063933  0.050717 -0.027124  0.200051
  4O   1px       -0.130901  0.002479 -0.047452  0.084746  0.111945  0.378526
  4O   1py       -0.179837 -0.070283  0.084185 -0.006292  0.028331 -0.230680
  4O   3s        -0.010700 -0.050156 -0.002382  0.081441  0.000518  0.256694
  4O   2pz       -0.075903 -0.145586 -0.033631  0.035807 -0.013270  0.150696
  4O   2px       -0.073741  0.002869 -0.029474  0.054874  0.073330  0.267468
  4O   2py       -0.098681 -0.039863  0.060821  0.003868  0.017633 -0.155680
  5O   1s        -0.012787 -0.043958  0.011992 -0.058451  0.001769  0.000028
  5O   2s         0.029099  0.091779 -0.017276  0.121812 -0.002421  0.004188
  5O   1pz       -0.124179 -0.047262  0.115677 -0.205740 -0.214945 -0.022850
  5O   1px        0.039879 -0.169769 -0.018060 -0.270884  0.160598 -0.026573
  5O   1py        0.067120 -0.054493  0.157023  0.019207  0.084432 -0.015149
  5O   3s         0.043507  0.185986 -0.075373  0.238575 -0.013476 -0.027623
  5O   2pz       -0.069651 -0.020488  0.060120 -0.103628 -0.132138 -0.025353
  5O   2px        0.022686 -0.083652 -0.024058 -0.135622  0.092147 -0.024658
  5O   2py        0.034488 -0.043194  0.096105  0.013435  0.052281 -0.010286
  6O   1s        -0.000828 -0.037523  0.047327  0.067221  0.001452 -0.020539
  6O   2s         0.003981  0.082633 -0.094504 -0.143299 -0.001486  0.050751
  6O   1pz       -0.129249  0.147413 -0.122360 -0.171128 -0.233288  0.053408
  6O   1px        0.047709  0.081976 -0.279875 -0.112878  0.139104 -0.078713
  6O   1py        0.042485  0.022799 -0.031931 -0.307663  0.082566  0.134119
  6O   3s        -0.006012  0.132825 -0.225514 -0.269899 -0.017492  0.075130
  6O   2pz       -0.064529  0.077065 -0.051217 -0.083734 -0.128874  0.030834
  6O   2px        0.030186  0.048953 -0.135989 -0.053951  0.078814 -0.064128
  6O   2py        0.023331  0.004332 -0.000460 -0.156834  0.050682  0.083177
  7H   1s        -0.012467 -0.061625  0.062459 -0.013883  0.007221  0.011181
  7H   2s        -0.003123  0.002037  0.012666  0.077793  0.002178  0.020866
  8H   1s        -0.053244  0.061437 -0.014303 -0.001546  0.034668 -0.008467
  8H   2s        -0.060066  0.038436 -0.015199  0.000046  0.036526  0.005228
  9H   1s         0.030579 -0.013181 -0.062505  0.012900 -0.021642  0.032132
  9H   2s         0.018698 -0.012181 -0.052436  0.005599 -0.004226  0.031749
 10H   1s        -0.112549  0.062744  0.103745 -0.041873  0.171806  0.007276
 10H   2s        -0.088517  0.046525  0.074056 -0.033037  0.137002  0.052561
 11H   1s        -0.098518  0.110166  0.096120 -0.008216  0.058777  0.078238
 11H   2s        -0.076496  0.081906  0.069313 -0.009040  0.074700  0.114929
 12H   1s        -0.147108 -0.138526 -0.128372  0.038815  0.023562 -0.125875
 12H   2s        -0.110519 -0.101505 -0.115142  0.043879  0.036729 -0.157192
 13H   1s        -0.099284 -0.078400  0.003396 -0.009866 -0.001496 -0.147881
 13H   2s        -0.074086 -0.032363 -0.056781 -0.040617  0.008376 -0.075860
                     24        25        26        27        28        29   
                  -0.26452  -0.25768  -0.25546  -0.23015   0.00017   0.04123
                   2.00000   2.00000   2.00000   2.00000   0.00000   0.00000
                  --------  --------  --------  --------  --------  --------
  0N   1s         0.015861  0.025887 -0.006877  0.011391  0.113745 -0.020108
  0N   2s        -0.023773 -0.063897  0.014583 -0.015537 -0.206275  0.044452
  0N   1pz       -0.036471  0.031443  0.003599 -0.020240  0.066209 -0.194315
  0N   1px       -0.018060  0.110818 -0.038422  0.000571 -0.016204  0.155982
  0N   1py       -0.043665 -0.107902  0.021301 -0.050184  0.175377  0.096459
  0N   3s        -0.173797 -0.136365  0.046689 -0.119164 -1.502910  0.207363
  0N   2pz       -0.076000  0.057723 -0.028987 -0.033701  0.135613 -0.401714
  0N   2px       -0.040443  0.140117 -0.022628 -0.001620 -0.025516  0.299686
  0N   2py       -0.064973 -0.061006  0.036404 -0.069645  0.352181  0.229672
  1C   1s        -0.029622  0.029478 -0.011703 -0.034414  0.005723  0.021132
  1C   2s         0.058382 -0.049798  0.014093  0.050176  0.002521 -0.040817
  1C   1pz       -0.027243  0.018927 -0.011426 -0.001895 -0.127977 -0.075895
  1C   1px        0.142632  0.030529  0.004389 -0.137692 -0.064730  0.073961
  1C   1py       -0.011745 -0.136895  0.043108  0.250142 -0.021871  0.066741
  1C   3s         0.204159 -0.252909  0.133219  0.296164 -0.213307 -0.273203
  1C   2pz       -0.102448  0.037945 -0.029806  0.000476 -0.214546 -0.403999
  1C   2px        0.032603  0.036981  0.064180 -0.152763 -0.082207  0.283325
  1C   2py       -0.123365 -0.107494  0.052436  0.255748 -0.077894  0.082994
  2C   1s        -0.004117 -0.009035  0.002117  0.000603 -0.001526  0.000554
  2C   2s         0.007440  0.015158 -0.005410  0.001170 -0.013352 -0.016094
  2C   1pz        0.003127  0.010046  0.017491  0.007395 -0.038289 -0.237537
  2C   1px       -0.003288 -0.022010 -0.011257  0.053516  0.008856  0.172158
  2C   1py       -0.000825  0.050390 -0.024898 -0.087220  0.029203  0.078030
  2C   3s         0.034891 -0.020707  0.012526  0.045726  0.133940  0.096688
  2C   2pz        0.006407 -0.088429  0.048064 -0.070938 -0.025897 -0.181949
  2C   2px       -0.005031 -0.061771  0.027887 -0.141055  0.021181  0.158579
  2C   2py       -0.044819 -0.127950  0.039718  0.122535  0.005823  0.042058
  3C   1s        -0.000358 -0.004332  0.001698  0.000285  0.026339  0.023278
  3C   2s         0.004415  0.009933  0.019896  0.000018 -0.040498 -0.034128
  3C   1pz        0.092249 -0.012707  0.015651  0.011590  0.007295  0.006513
  3C   1px       -0.074752 -0.014248  0.006269  0.065575 -0.037428  0.120590
  3C   1py       -0.070334  0.045196 -0.015373 -0.044376 -0.008401  0.031032
  3C   3s         0.007814  0.024312 -0.097520 -0.000759 -0.275649 -0.350100
  3C   2pz        0.041883 -0.012510 -0.024762 -0.001917 -0.044967  0.166828
  3C   2px        0.027323 -0.043828  0.069687  0.009603 -0.190919  0.247791
  3C   2py        0.042023  0.000443 -0.037864 -0.037152 -0.002488  0.141318
  4O   1s         0.003464 -0.001434  0.003229  0.006376 -0.016469  0.015715
  4O   2s        -0.002307 -0.000001 -0.009916 -0.013389  0.025911 -0.026279
  4O   1pz       -0.366317  0.047980 -0.081589  0.020526 -0.074221  0.022455
  4O   1px        0.348167 -0.131813  0.053281 -0.149803 -0.051220  0.002051
  4O   1py        0.285190 -0.002840  0.070036  0.084581 -0.016828  0.011466
  4O   3s        -0.044056  0.038375  0.005183 -0.005458  0.193798 -0.188730
  4O   2pz       -0.271819  0.034779 -0.065244  0.015461 -0.116031  0.073146
  4O   2px        0.272693 -0.100726  0.029383 -0.110721 -0.065761  0.018771
  4O   2py        0.223891  0.001285  0.052474  0.070394 -0.037898  0.010418
  5O   1s         0.005866  0.019365 -0.005521  0.001393  0.015286 -0.003077
  5O   2s        -0.013916 -0.047405  0.011623  0.006646 -0.029350  0.006405
  5O   1pz        0.025863 -0.218024 -0.310502 -0.121758  0.056752  0.159553
  5O   1px       -0.027390  0.177512  0.227879 -0.181408 -0.031377 -0.128684
  5O   1py       -0.145243 -0.469323  0.269852  0.076478  0.074913 -0.075212
  5O   3s        -0.027070 -0.098983  0.041811 -0.135119 -0.132167  0.019978
  5O   2pz        0.020334 -0.164066 -0.247370 -0.117098  0.048362  0.149810
  5O   2px       -0.021664  0.131862  0.187039 -0.168152 -0.048080 -0.129569
  5O   2py       -0.096661 -0.328450  0.198478  0.046627  0.093335 -0.079437
  6O   1s        -0.002736 -0.004067  0.000337 -0.003340 -0.000533  0.003747
  6O   2s         0.007252  0.000768  0.004453  0.007548  0.005048 -0.007566
  6O   1pz       -0.058471 -0.004018  0.379604 -0.090604  0.043461  0.155575
  6O   1px       -0.053243 -0.253464 -0.172216 -0.299874  0.017942 -0.132827
  6O   1py        0.059452 -0.010292 -0.110052  0.427287 -0.044540 -0.032856
  6O   3s         0.019192  0.128919 -0.051515  0.003425 -0.027490 -0.042908
  6O   2pz       -0.055018 -0.010820  0.295115 -0.053417  0.048961  0.174739
  6O   2px       -0.040668 -0.200651 -0.128902 -0.194439  0.023061 -0.130859
  6O   2py        0.048196 -0.028176 -0.072129  0.293539 -0.030576 -0.027923
  7H   1s         0.027797  0.043685 -0.012838 -0.037949  0.035277 -0.017695
  7H   2s         0.055974  0.133585 -0.038209 -0.016158  0.246807 -0.117099
  8H   1s        -0.004172  0.013811 -0.024184  0.023385  0.079054 -0.103667
  8H   2s        -0.023013  0.040764 -0.037412  0.035823  0.922345 -0.952194
  9H   1s         0.014230  0.016537  0.014967  0.029685  0.095247  0.086718
  9H   2s         0.015594  0.049790  0.021809  0.039676  1.051623  0.718286
 10H   1s        -0.011616  0.024861 -0.011858 -0.032218  0.006412  0.102841
 10H   2s        -0.081017  0.055525  0.000791 -0.060688  0.256150  0.749174
 11H   1s        -0.143043  0.043359 -0.025597 -0.027984 -0.034773  0.007219
 11H   2s        -0.194833  0.058397 -0.041258 -0.037977  0.085565  0.055753
 12H   1s         0.026043 -0.038282  0.018038  0.073750 -0.018531  0.047633
 12H   2s         0.044835 -0.047512 -0.001872  0.095989  0.161093  0.221759
 13H   1s         0.012443  0.001455  0.007687  0.033386 -0.012787  0.019895
 13H   2s         0.002838 -0.046048  0.006222 -0.039193 -0.035655  0.053640
                     30        31        32        33        34        35   
                   0.06294   0.09489   0.10161   0.12482   0.13702   0.14386
                   0.00000   0.00000   0.00000   0.00000   0.00000   0.00000
                  --------  --------  --------  --------  --------  --------
  0N   1s        -0.006747 -0.010445  0.051319 -0.017903 -0.016435 -0.005100
  0N   2s         0.011261  0.021945 -0.094180  0.018570  0.031040  0.016412
  0N   1pz        0.176976  0.182366 -0.106028  0.109169 -0.155602  0.054306
  0N   1px       -0.169972  0.199055  0.138426  0.053723 -0.145280 -0.066308
  0N   1py       -0.116312  0.024037 -0.238859 -0.146322 -0.007529 -0.082120
  0N   3s         0.099694  0.063811 -0.638471  0.312678  0.239413  0.024481
  0N   2pz        0.449456  0.388760 -0.390011  0.339435 -0.312052  0.134700
  0N   2px       -0.404914  0.399020  0.213141  0.189731 -0.191242 -0.173233
  0N   2py       -0.255209  0.062160 -0.643267 -0.354092  0.033291 -0.171617
  1C   1s        -0.011051  0.030181 -0.052068  0.088825  0.018077  0.067533
  1C   2s         0.003408 -0.039426  0.067489 -0.117174 -0.019246 -0.083302
  1C   1pz        0.052704  0.133654 -0.063741 -0.105651 -0.116944 -0.174656
  1C   1px       -0.008682  0.165043 -0.070059  0.045525 -0.007608  0.021267
  1C   1py       -0.030022  0.128021 -0.187211  0.158976 -0.124749  0.005088
  1C   3s         0.179232 -0.361693  0.829952 -1.431110 -0.396591 -1.062905
  1C   2pz       -0.001042  0.252399 -0.146313 -0.321091 -0.333492 -0.686083
  1C   2px        0.168988  0.415862 -0.050022  0.005688 -0.009961 -0.147782
  1C   2py       -0.057974  0.142984 -0.531031  0.265299 -0.479470  0.179371
  2C   1s        -0.001092 -0.009072 -0.049063 -0.011962 -0.033275 -0.042496
  2C   2s        -0.007071 -0.013670  0.093975 -0.010808 -0.006958  0.029378
  2C   1pz       -0.320606  0.133246 -0.071295  0.008312  0.137867  0.009472
  2C   1px        0.233262 -0.116861  0.031401 -0.034047 -0.048096  0.013668
  2C   1py        0.086252  0.019216 -0.079916 -0.004237 -0.187235 -0.055022
  2C   3s         0.055869  0.335391  0.610825  0.291640  0.652152  0.688095
  2C   2pz       -0.339401  0.135625  0.031504  0.185681  0.057440  0.091872
  2C   2px        0.206943 -0.083575  0.177972  0.024534 -0.022519  0.006185
  2C   2py        0.057095  0.058535 -0.010112 -0.006727 -0.353484  0.027052
  3C   1s         0.044141  0.047656  0.023979 -0.003111  0.101154 -0.034751
  3C   2s        -0.055224 -0.038423 -0.033966 -0.028587 -0.154762  0.035969
  3C   1pz        0.070215  0.244357 -0.053829 -0.173811  0.089630  0.084298
  3C   1px        0.009077 -0.007633  0.110768 -0.127234 -0.179823  0.016880
  3C   1py        0.013332  0.138769 -0.067784  0.161965 -0.070835 -0.275551
  3C   3s        -0.687976 -0.948382 -0.260085  0.184530 -1.504760  0.603753
  3C   2pz        0.127835  0.539868 -0.066888 -0.439448  0.365820  0.359051
  3C   2px       -0.000810  0.035849  0.203870 -0.470879 -0.533515 -0.028394
  3C   2py        0.076142  0.288629 -0.117488  0.442526 -0.090707 -0.842091
  4O   1s        -0.002504  0.054829 -0.013353 -0.033409 -0.047371  0.033092
  4O   2s         0.000316 -0.115792  0.033606  0.051690  0.087042 -0.059982
  4O   1pz       -0.012609  0.058276 -0.015127 -0.058933 -0.114067 -0.102242
  4O   1px       -0.005739  0.146850 -0.093234 -0.020281 -0.101387  0.047036
  4O   1py        0.017590 -0.062918 -0.027212  0.020402  0.061626 -0.103690
  4O   3s         0.055231 -0.553268  0.110129  0.423289  0.544717 -0.417279
  4O   2pz       -0.024504  0.082046 -0.037838 -0.092513 -0.231974 -0.128643
  4O   2px       -0.010917  0.230043 -0.115363 -0.073343 -0.130018  0.100590
  4O   2py        0.010928 -0.098605 -0.017602 -0.036587  0.076317 -0.119729
  5O   1s        -0.002233  0.021935  0.045753  0.019372 -0.004902  0.018889
  5O   2s         0.007199 -0.041304 -0.093574 -0.043114  0.014714 -0.039741
  5O   1pz        0.178378 -0.028012  0.073654  0.000950 -0.093106 -0.059898
  5O   1px       -0.128683  0.058005 -0.038186  0.030102 -0.022079 -0.074134
  5O   1py       -0.064216  0.044024  0.144892  0.066892  0.019424  0.011534
  5O   3s        -0.007347 -0.219962 -0.390081 -0.148679 -0.035537 -0.212514
  5O   2pz        0.188385 -0.055502  0.088180 -0.003830 -0.134895 -0.109905
  5O   2px       -0.147314  0.025877 -0.078822  0.019457 -0.045469 -0.131833
  5O   2py       -0.072041  0.068337  0.242892  0.106312  0.027309  0.015999
  6O   1s        -0.001019  0.029646  0.012914  0.004792 -0.009129  0.029989
  6O   2s        -0.000096 -0.067085 -0.016245 -0.004646  0.021389 -0.057121
  6O   1pz        0.221443 -0.041794  0.081199 -0.004301 -0.039611 -0.014226
  6O   1px       -0.155073  0.000988  0.034846  0.077677  0.071068 -0.034701
  6O   1py       -0.057173  0.085315  0.021252  0.033198  0.030929  0.048041
  6O   3s         0.021436 -0.267467 -0.242335 -0.141845  0.046206 -0.354176
  6O   2pz        0.232579 -0.016820  0.112293  0.011119 -0.063217  0.049306
  6O   2px       -0.165513  0.037589  0.054317  0.102313  0.077313  0.016971
  6O   2py       -0.065194  0.135250  0.082706  0.059482  0.052292  0.130892
  7H   1s        -0.009551  0.111207  0.197489  0.106840 -0.065713 -0.025177
  7H   2s        -0.053107  0.565776  1.335803  0.625482 -0.463735 -0.028115
  8H   1s         0.077466 -0.006430 -0.097368 -0.020208 -0.082190  0.018711
  8H   2s         0.830448  0.153587 -0.601278 -0.022879 -0.373961  0.186638
  9H   1s        -0.093068  0.003375 -0.066754 -0.063773  0.003234 -0.006982
  9H   2s        -0.935119  0.088676 -0.226309 -0.647358 -0.082800 -0.433572
 10H   1s         0.023973 -0.058310 -0.041539  0.075481 -0.015135  0.027228
 10H   2s        -0.079521 -0.079106 -0.511273  1.241197  0.212514  1.122806
 11H   1s         0.001330  0.041322  0.029019 -0.074796  0.065108  0.002841
 11H   2s         0.346229  0.720189  0.131903 -0.820722  1.289101  0.628626
 12H   1s         0.025372  0.041747 -0.033053  0.036136  0.002407 -0.078224
 12H   2s         0.367494  0.795979 -0.246114  0.728302  0.754079 -1.263018
 13H   1s        -0.009991  0.063071  0.006052 -0.070291 -0.073630  0.104727
 13H   2s        -0.052153  0.471015 -0.029502 -0.292276 -0.410833  0.708719
                     36        37        38        39        40        41   
                   0.16584   0.22000   0.23946   0.24710   0.34625   0.44368
                   0.00000   0.00000   0.00000   0.00000   0.00000   0.00000
                  --------  --------  --------  --------  --------  --------
  0N   1s         0.041451 -0.005901 -0.022839 -0.023485  0.003267  0.007426
  0N   2s        -0.046867  0.045406  0.017582  0.032394 -0.014965  0.040096
  0N   1pz       -0.176264  0.002623 -0.101333  0.055690  0.004274  0.059873
  0N   1px       -0.185893  0.083995  0.047430 -0.130860  0.052066  0.069371
  0N   1py       -0.089237  0.076497  0.046831  0.183424 -0.007336  0.090301
  0N   3s        -0.747037 -0.204775  0.477500  0.392161 -0.082201 -0.712173
  0N   2pz       -0.580134 -0.084976 -0.095363  0.277181  0.027026 -0.377154
  0N   2px       -0.611738  0.096437  0.431321 -0.089808  0.090043 -0.362300
  0N   2py       -0.399084  0.090637  0.221081  0.493625 -0.100702 -0.249491
  1C   1s        -0.060881  0.112294  0.045059  0.047536  0.042622 -0.016368
  1C   2s         0.104820 -0.118699 -0.065172 -0.090689 -0.050240  0.033670
  1C   1pz       -0.297151  0.137329  0.317601  0.082367  0.032058 -0.125768
  1C   1px       -0.196008 -0.130869 -0.176187  0.297305 -0.100154 -0.027667
  1C   1py       -0.167168 -0.126011 -0.003337 -0.270773  0.100371 -0.083790
  1C   3s         0.787617 -1.924287 -0.865764 -0.486215 -0.965409  0.492506
  1C   2pz       -0.884175  0.113385  0.978106  0.324178 -0.027712 -0.811091
  1C   2px       -0.716147 -1.073919 -0.854821  1.266949 -0.019035 -1.196691
  1C   2py       -0.553545 -0.853589 -0.024014 -1.027870 -0.552527 -0.096108
  2C   1s         0.007985 -0.060465 -0.012480 -0.107722  0.059129  0.021774
  2C   2s        -0.009725  0.021351 -0.026012  0.136297  0.069132 -0.077847
  2C   1pz        0.051062 -0.070361 -0.089885  0.040201  0.034630  0.124503
  2C   1px       -0.076072  0.093910  0.048576  0.150169  0.203861  0.225946
  2C   1py        0.053508 -0.159977  0.117211 -0.321271 -0.348237  0.058924
  2C   3s         0.002584  1.248224  0.421367  1.871254 -1.598618 -0.146671
  2C   2pz        0.116873 -0.133737 -0.203142  0.032065  0.042115  2.194006
  2C   2px       -0.041509  0.278786  0.104645  0.254839  0.693612  2.387594
  2C   2py        0.061781 -0.345701  0.285960 -0.687953 -1.345886  1.412019
  3C   1s        -0.010297 -0.124737 -0.001635  0.026696 -0.006967  0.011522
  3C   2s         0.023242  0.130596 -0.053486 -0.032035  0.010075 -0.083488
  3C   1pz        0.007090  0.189538 -0.121083 -0.192659 -0.016905 -0.105192
  3C   1px       -0.006747 -0.100256 -0.292174  0.179305 -0.072794 -0.020735
  3C   1py        0.256779  0.067616 -0.050923  0.125785  0.028984 -0.195816
  3C   3s         0.153142  2.183041  0.370587 -0.533935  0.103065  0.461446
  3C   2pz        0.348792  0.985339 -0.616703 -0.757985  0.074747  0.513461
  3C   2px       -0.031318 -0.771171 -1.438454  0.530957 -0.320417 -0.156174
  3C   2py        0.826751  0.502513 -0.088905  0.391780 -0.068474  0.038410
  4O   1s         0.046085  0.024466 -0.021377  0.000019  0.013227 -0.016358
  4O   2s        -0.065615 -0.005479  0.024372 -0.012031 -0.037402  0.058416
  4O   1pz        0.047121  0.210625 -0.207360 -0.018872 -0.063554  0.014735
  4O   1px        0.016381  0.110239  0.030166 -0.043251  0.018166  0.005026
  4O   1py       -0.165972  0.177536 -0.230914 -0.093842 -0.085324 -0.006830
  4O   3s        -0.708076 -0.543269  0.369108  0.080984 -0.143188  0.004034
  4O   2pz        0.144204  0.426924 -0.479698 -0.047240 -0.092035  0.036271
  4O   2px        0.156158  0.329843  0.021559 -0.108486  0.067967 -0.026184
  4O   2py       -0.240432  0.346634 -0.449322 -0.198334 -0.126461  0.105872
  5O   1s        -0.003094  0.019910  0.012672  0.003760 -0.066547 -0.079157
  5O   2s         0.008707 -0.040891 -0.027691 -0.008404  0.144449  0.120006
  5O   1pz       -0.089369 -0.031301 -0.001890 -0.058689  0.181050  0.033919
  5O   1px       -0.012084 -0.072595 -0.059018 -0.090520  0.164046  0.125820
  5O   1py       -0.043226  0.067017 -0.045301  0.012220  0.202904 -0.109592
  5O   3s         0.025231 -0.255227 -0.168841 -0.123662  0.994217  1.971227
  5O   2pz       -0.092116 -0.045958 -0.025533 -0.119737  0.471106  0.415397
  5O   2px       -0.017403 -0.190236 -0.136324 -0.150604  0.485151  0.696546
  5O   2py       -0.047654  0.111496 -0.086658  0.032211  0.335821 -0.306539
  6O   1s         0.009908  0.002592  0.030814  0.034167 -0.057518  0.076976
  6O   2s        -0.016737  0.006376 -0.069090 -0.083631  0.124038 -0.093529
  6O   1pz       -0.034958  0.099027  0.070225  0.016862 -0.144961  0.022822
  6O   1px       -0.056883  0.022074 -0.073626 -0.021027 -0.267377 -0.020070
  6O   1py       -0.046270  0.025825 -0.001080  0.182520  0.040803  0.112629
  6O   3s        -0.098348 -0.164840 -0.338207 -0.371636  0.922151 -2.169842
  6O   2pz       -0.031720  0.122887  0.160346  0.078356 -0.389636  0.358747
  6O   2px       -0.030543  0.025414 -0.020077 -0.013038 -0.567269  0.270075
  6O   2py       -0.014545  0.099629  0.064853  0.330792 -0.049842  0.675391
  7H   1s        -0.084304 -0.009515  0.018621  0.009750  0.086592 -0.015194
  7H   2s        -0.277731 -0.020153 -0.091343 -0.521580  0.377652  0.183245
  8H   1s         0.017795  0.103530 -0.015587 -0.019043 -0.012378  0.042711
  8H   2s        -0.010904 -0.045962 -0.542958  0.347366 -0.093179 -0.041194
  9H   1s        -0.063409 -0.064991  0.014859 -0.006504 -0.072440 -0.131212
  9H   2s        -0.298480  0.145268  0.330396  0.175264 -0.047464 -0.002749
 10H   1s        -0.012002 -0.067247  0.003901 -0.035077 -0.029067 -0.070142
 10H   2s         0.156940 -0.140277 -0.827758 -0.302539  0.093127  0.174822
[...]
  2C   1px        0.169606 -0.012881  0.156569 -0.036968  0.270502 -0.031443
  2C   1py       -0.011504  0.172517  0.035275  0.070661 -0.200868  0.091714
  2C   3s        -0.017794  0.098698  0.934503 -0.237798 -0.268675  1.999140
  2C   2pz        0.723975 -0.207733  0.190006  0.429152 -0.437464 -0.440469
  2C   2px       -0.163626 -0.224051 -1.460168 -0.134114 -0.960186  0.730859
  2C   2py       -0.241651 -1.015649 -0.157090  0.418210  1.354065 -2.286215
  3C   1s         0.005164 -0.015719  0.018782  0.006606 -0.065018  0.035019
  3C   2s         0.230479 -0.541579  0.259623 -0.114629 -1.330985  0.487798
  3C   1pz       -0.023124 -0.005151  0.060662 -0.066553  0.027283  0.021107
  3C   1px       -0.046548  0.182339  0.101602 -0.004242  0.149415 -0.136971
  3C   1py       -0.074273 -0.170073 -0.014908  0.003047 -0.110545 -0.032310
  3C   3s        -0.473193  0.680557 -1.817888 -0.458965  3.372484 -1.805132
  3C   2pz        0.038945 -0.245270 -0.197294  0.441210 -0.831066 -1.212359
  3C   2px        0.693692 -0.155214  0.288337  0.447429 -1.331166 -0.315691
  3C   2py        0.971489  0.375422  0.189068 -0.630456  0.787852  0.664863
  4O   1s         0.001017  0.035824  0.006416 -0.022686  0.029909 -0.003800
  4O   2s         0.021514 -0.427509 -0.049164  0.300020 -0.471973  0.178778
  4O   1pz       -0.516728 -0.082353 -0.046865  0.196436  0.049023  0.200130
  4O   1px        0.526418 -0.016580 -0.157028  0.242300  0.051601 -0.018061
  4O   1py        0.117780 -0.254866  0.123857  0.018390  0.193214  0.603885
  4O   3s        -0.219296  0.442383  0.208704 -0.571506  0.443947 -0.147277
  4O   2pz        0.891484  0.171844 -0.027207 -0.358075  0.003471 -0.687075
  4O   2px       -0.744063  0.144083  0.244519 -0.435355  0.062208  0.055553
  4O   2py       -0.145186  0.268633 -0.358791  0.090067 -0.465172 -1.836504
  5O   1s         0.000270  0.017637 -0.008271 -0.012481 -0.005207  0.000901
  5O   2s        -0.021517 -0.189907  0.178374  0.028519  0.076991  0.049617
  5O   1pz        0.159818  0.166658  0.194232  0.323713  0.143702 -0.097354
  5O   1px       -0.091534  0.102656 -0.352245  0.266790  0.017763 -0.019208
  5O   1py       -0.134965 -0.094865  0.219919  0.367859  0.317393 -0.130283
  5O   3s         0.122312  0.201715 -0.918218  0.270918 -0.429077 -0.112061
  5O   2pz       -0.286604 -0.252605 -0.551017 -0.724369 -0.451803  0.333335
  5O   2px        0.261443 -0.214557  0.353049 -0.522384 -0.304239  0.065941
  5O   2py        0.244403  0.318926 -0.382515 -0.893853 -0.917658  0.627399
  6O   1s         0.000159  0.000450 -0.007335  0.001776  0.001199 -0.023117
  6O   2s         0.004608 -0.040410  0.118984 -0.007346  0.084341  0.292399
  6O   1pz        0.286807 -0.061883  0.118863  0.311274 -0.140923  0.087022
  6O   1px       -0.071579  0.242856 -0.286549  0.425738  0.064173  0.401689
  6O   1py       -0.090281 -0.567989 -0.040480  0.008567  0.110690 -0.185906
  6O   3s         0.003263  0.508038  0.002377 -0.217609 -0.277220  0.077835
  6O   2pz       -0.488319  0.042063 -0.269172 -0.547216  0.410207 -0.256747
  6O   2px        0.190164 -0.360872  0.640013 -0.653538  0.228964 -1.067987
  6O   2py        0.175493  0.839856  0.015911  0.016563 -0.291082  0.440298
  7H   1s         0.024366  0.208506 -0.218871 -0.333405 -0.326166  0.215533
  7H   2s         0.070662 -0.432981  0.188472 -0.533436 -0.315843  0.174259
  8H   1s        -0.133840  0.122629  0.478231  0.155457  0.006126 -0.001093
  8H   2s        -0.056306 -0.034796  0.281035  0.144184 -0.117815  0.034784
  9H   1s         0.148685 -0.225242 -0.495675 -0.144941  0.259403  0.113121
  9H   2s        -0.014576 -0.213092 -0.243380 -0.087945  0.299872  0.063569
 10H   1s         0.061150 -0.012639  0.471616  0.254095 -0.196945 -0.109955
 10H   2s        -0.144917 -0.238689  0.340411  0.148261 -0.183930 -0.351223
 11H   1s        -0.330461 -0.216517  0.016928  0.284640 -0.548269 -0.071929
 11H   2s         0.104381 -0.229797  0.114416  0.017960 -0.620959 -0.229392
 12H   1s         0.267411 -0.048123  0.260089 -0.201220 -0.027666  0.465944
 12H   2s         0.193182  0.078258  0.103398 -0.153252 -0.021395  0.249274
 13H   1s        -0.049164  0.310856  0.226052 -0.405827  0.134877  0.381185
 13H   2s        -0.141380 -0.551066 -0.072193  0.838804 -0.162108  1.343599
                     72        73        74        75        76   
                   1.45506   1.67213   1.71486   1.84782   2.01337
                   0.00000   0.00000   0.00000   0.00000   0.00000
                  --------  --------  --------  --------  --------
  0N   1s        -0.014068 -0.034744  0.002996 -0.021241 -0.004155
  0N   2s        -1.427555 -0.934718 -0.130076 -0.553463  0.057604
  0N   1pz       -0.063410 -0.041047 -0.043001 -0.040715  0.009611
  0N   1px       -0.033668  0.043560 -0.037626 -0.007804  0.027431
  0N   1py       -0.164989 -0.041076 -0.077386 -0.074204  0.079117
  0N   3s         3.132837  3.212466 -0.059055  1.895993  0.686666
  0N   2pz        0.143429  0.925860 -0.051754  0.396907  0.431293
  0N   2px        0.441007  0.696909  0.066424  0.576425  0.119411
  0N   2py        0.589419  0.575965  0.095643  0.517666 -0.159314
  1C   1s        -0.020867  0.179279 -0.035647  0.056325  0.015544
  1C   2s        -0.242656  2.372718 -0.656661  0.386888  0.149475
  1C   1pz        0.015389  0.035056 -0.000580 -0.128969 -0.049351
  1C   1px        0.037199  0.201333  0.087458 -0.149936 -0.033506
  1C   1py        0.171958  0.046175 -0.049673 -0.028738 -0.050997
  1C   3s         1.203144 -9.107930  2.329717 -2.681400 -1.287157
  1C   2pz        1.241550  0.413193  0.160110  1.185748  0.967220
  1C   2px        0.616742 -0.261839 -0.163858 -0.341161  1.423934
  1C   2py        0.721610 -0.483569  0.515620  0.489100  0.033334
  2C   1s         0.021131 -0.049746  0.010793  0.009740 -0.037835
  2C   2s         0.527981 -0.387712  0.362696  0.333253 -0.261178
  2C   1pz       -0.042215 -0.020467 -0.023875 -0.052662 -0.147173
  2C   1px        0.043295 -0.014012 -0.101266  0.057529 -0.191100
  2C   1py       -0.189676 -0.052899  0.086075 -0.084107 -0.104387
  2C   3s        -1.136444  3.345305  1.823089  0.339926  0.037407
  2C   2pz       -0.317412 -0.082250 -0.070207 -0.257253 -2.106869
  2C   2px       -0.919411  0.900273 -0.878956 -0.549124 -2.948861
  2C   2py        1.457084 -1.831384  1.973307  0.405188 -2.424915
  3C   1s         0.043835 -0.054988  0.021771 -0.106864 -0.011387
  3C   2s         0.756968 -0.488033  0.113448 -0.912571 -0.134128
  3C   1pz       -0.038283 -0.122821 -0.090325  0.178111  0.035634
  3C   1px       -0.046279 -0.279758 -0.007466  0.177092  0.064917
  3C   1py       -0.098793 -0.000592 -0.067679  0.047815 -0.056566
  3C   3s        -2.367485  3.043649 -0.908782  4.419775 -0.133314
  3C   2pz       -0.497232  0.401134 -0.014403  0.553940 -0.520014
  3C   2px       -0.073152 -1.009330  0.161817 -0.462421 -0.068688
  3C   2py        0.621689 -0.514209 -0.031086  0.719313  0.667518
  4O   1s         0.009274  0.012297  0.004825 -0.019989  0.000414
  4O   2s        -0.262703 -0.343477 -0.307525  1.616844  0.045809
  4O   1pz        0.015672  0.074966  0.058243 -0.213600 -0.023678
  4O   1px       -0.153040  0.156204  0.059603 -0.168162 -0.030645
  4O   1py        0.122223 -0.029859 -0.024625 -0.061101  0.042414
  4O   3s         0.726670  0.242537  0.588323 -3.434900 -0.059595
  4O   2pz       -0.238140 -0.083696 -0.207171  1.024026  0.067093
  4O   2px        0.201120 -0.216405 -0.205610  0.977592  0.099189
  4O   2py       -0.534658  0.313443  0.074645  0.096468 -0.232308
  5O   1s        -0.000454  0.000741 -0.019683 -0.001178 -0.003902
  5O   2s        -0.155746  0.129266  1.393263  0.245533  1.333735
  5O   1pz        0.089207 -0.043574  0.059568  0.036853  0.085032
  5O   1px        0.223782  0.038740  0.168391  0.031049  0.162771
  5O   1py        0.233067 -0.133831 -0.027452  0.015400 -0.107818
  5O   3s         0.266940 -0.291463 -2.979413 -0.670183 -3.603314
  5O   2pz       -0.420977  0.093479 -0.437126 -0.213889 -0.338249
  5O   2px       -0.613747 -0.211693 -0.982582 -0.301298 -1.032365
  5O   2py       -0.965079  0.530978  0.044030 -0.111663  0.978880
  6O   1s         0.011053 -0.001161 -0.018725 -0.005825  0.008078
  6O   2s        -0.197841  0.112601  1.163659  0.319072 -1.577550
  6O   1pz        0.033517 -0.017542 -0.074183 -0.046451  0.049839
  6O   1px       -0.019572  0.053857 -0.133853  0.038246  0.083850
  6O   1py        0.110134 -0.045644 -0.056815 -0.022387  0.123799
  6O   3s         0.183414 -0.332214 -2.703569 -0.536208  4.601250
  6O   2pz        0.036268  0.049072  0.592118  0.185767 -0.564318
  6O   2px        0.218946 -0.239652  0.914445  0.058405 -0.556881
  6O   2py       -0.387960  0.399272  0.467691  0.096418 -1.310534
  7H   1s        -0.332664  0.163616  0.315009 -0.006595  0.485563
  7H   2s        -0.839966 -0.119841  0.098912 -0.176357  0.065789
  8H   1s        -0.430085 -0.209525 -0.030248 -0.212398  0.094751
  8H   2s        -0.317985 -0.040845 -0.041263  0.000081  0.071786
  9H   1s        -0.178056 -0.295448  0.027547 -0.109740 -0.117063
  9H   2s        -0.186753 -0.031567  0.052671  0.121065 -0.057735
 10H   1s        -0.307029  0.819126 -0.107893  0.080293 -0.030842
 10H   2s        -0.111819  0.577999 -0.354164 -0.156759 -0.023392
 11H   1s         0.020645 -0.060364  0.156843 -0.461191 -0.171205
 11H   2s         0.212346  0.033836 -0.020988 -0.374408 -0.249818
 12H   1s         0.430941 -0.302882  0.054667 -0.300935  0.135362
 12H   2s         0.547672 -0.377954  0.153585 -0.166025  0.237356
 13H   1s         0.239380 -0.246487 -0.150626  0.498977  0.133759
 13H   2s        -0.095641 -0.060419 -0.035635  0.195229  0.021171



                    ********************************
                    * MULLIKEN POPULATION ANALYSIS *
                    ********************************

-----------------------
MULLIKEN ATOMIC CHARGES
-----------------------
   0 N :   -0.750913
   1 C :   -0.108191
   2 C :    0.556460
   3 C :   -0.007258
   4 O :   -0.613762
   5 O :   -0.546757
   6 O :   -0.437841
   7 H :    0.409579
   8 H :    0.313888
   9 H :    0.318799
  10 H :    0.200893
  11 H :    0.125670
  12 H :    0.151471
  13 H :    0.387962
Sum of atomic charges:   -0.0000000

--------------------------------
MULLIKEN REDUCED ORBITAL CHARGES
--------------------------------
  0 N s       :     3.642874  s :     3.642874
      pz      :     1.156196  p :     4.108040
      px      :     1.627113
      py      :     1.324731
  1 C s       :     3.294706  s :     3.294706
      pz      :     0.951739  p :     2.813485
      px      :     0.935762
      py      :     0.925984
  2 C s       :     2.992027  s :     2.992027
      pz      :     0.799955  p :     2.451513
      px      :     0.751254
      py      :     0.900304
  3 C s       :     3.262505  s :     3.262505
      pz      :     0.862555  p :     2.744753
      px      :     0.839921
      py      :     1.042277
  4 O s       :     3.914288  s :     3.914288
      pz      :     1.542467  p :     4.699474
      px      :     1.743710
      py      :     1.413297
  5 O s       :     3.930916  s :     3.930916
      pz      :     1.622684  p :     4.615841
      px      :     1.429434
      py      :     1.563722
  6 O s       :     3.964200  s :     3.964200
      pz      :     1.418133  p :     4.473641
      px      :     1.562596
      py      :     1.492911
  7 H s       :     0.590421  s :     0.590421
  8 H s       :     0.686112  s :     0.686112
  9 H s       :     0.681201  s :     0.681201
 10 H s       :     0.799107  s :     0.799107
 11 H s       :     0.874330  s :     0.874330
 12 H s       :     0.848529  s :     0.848529
 13 H s       :     0.612038  s :     0.612038


                     *******************************
                     * LOEWDIN POPULATION ANALYSIS *
                     *******************************

----------------------
LOEWDIN ATOMIC CHARGES
----------------------
   0 N :   -0.445996
   1 C :   -0.105234
   2 C :    0.234587
   3 C :   -0.035139
   4 O :   -0.428421
   5 O :   -0.321492
   6 O :   -0.288576
   7 H :    0.308528
   8 H :    0.222434
   9 H :    0.228364
  10 H :    0.142510
  11 H :    0.089457
  12 H :    0.110460
  13 H :    0.288518

-------------------------------
LOEWDIN REDUCED ORBITAL CHARGES
-------------------------------
  0 N s       :     3.258850  s :     3.258850
      pz      :     1.209571  p :     4.187146
      px      :     1.633248
      py      :     1.344327
  1 C s       :     2.960210  s :     2.960210
      pz      :     1.043738  p :     3.145024
      px      :     1.063657
      py      :     1.037629
  2 C s       :     2.924530  s :     2.924530
      pz      :     0.866751  p :     2.840883
      px      :     0.919727
      py      :     1.054405
  3 C s       :     2.973709  s :     2.973709
      pz      :     0.979474  p :     3.061429
      px      :     0.987717
      py      :     1.094237
  4 O s       :     3.609171  s :     3.609171
      pz      :     1.600562  p :     4.819250
      px      :     1.763866
      py      :     1.454822
  5 O s       :     3.591240  s :     3.591240
      pz      :     1.636170  p :     4.730252
      px      :     1.492174
      py      :     1.601908
  6 O s       :     3.635336  s :     3.635336
      pz      :     1.452137  p :     4.653240
      px      :     1.618836
      py      :     1.582267
  7 H s       :     0.691472  s :     0.691472
  8 H s       :     0.777566  s :     0.777566
  9 H s       :     0.771636  s :     0.771636
 10 H s       :     0.857490  s :     0.857490
 11 H s       :     0.910543  s :     0.910543
 12 H s       :     0.889540  s :     0.889540
 13 H s       :     0.711482  s :     0.711482


                      *****************************
                      * MAYER POPULATION ANALYSIS *
                      *****************************

  NA   - Mulliken gross atomic population
  ZA   - Total nuclear charge
  QA   - Mulliken gross atomic charge
  VA   - Mayer's total valence
  BVA  - Mayer's bonded valence
  FA   - Mayer's free valence

  ATOM       NA         ZA         QA         VA         BVA        FA
  0 N      7.7509     7.0000    -0.7509     2.7358     2.7358    -0.0000
  1 C      6.1082     6.0000    -0.1082     3.5574     3.5574    -0.0000
  2 C      5.4435     6.0000     0.5565     3.6970     3.6970    -0.0000
  3 C      6.0073     6.0000    -0.0073     3.7171     3.7171    -0.0000
  4 O      8.6138     8.0000    -0.6138     1.7421     1.7421     0.0000
  5 O      8.5468     8.0000    -0.5468     1.8593     1.8593     0.0000
  6 O      8.4378     8.0000    -0.4378     2.0221     2.0221    -0.0000
  7 H      0.5904     1.0000     0.4096     0.8338     0.8338     0.0000
  8 H      0.6861     1.0000     0.3139     0.8643     0.8643    -0.0000
  9 H      0.6812     1.0000     0.3188     0.8624     0.8624    -0.0000
 10 H      0.7991     1.0000     0.2009     0.9224     0.9224    -0.0000
 11 H      0.8743     1.0000     0.1257     0.9275     0.9275     0.0000
 12 H      0.8485     1.0000     0.1515     0.9298     0.9298    -0.0000
 13 H      0.6120     1.0000     0.3880     0.8443     0.8443     0.0000

  Mayer bond orders larger than 0.1
B(  0-N ,  1-C ) :   0.8787 B(  0-N ,  7-H ) :   0.1252 B(  0-N ,  8-H ) :   0.8539 
B(  0-N ,  9-H ) :   0.8574 B(  1-C ,  2-C ) :   0.8471 B(  1-C ,  3-C ) :   0.9001 
B(  1-C , 10-H ) :   0.9165 B(  2-C ,  5-O ) :   1.0531 B(  2-C ,  6-O ) :   1.7898 
B(  3-C ,  4-O ) :   0.9347 B(  3-C , 11-H ) :   0.9195 B(  3-C , 12-H ) :   0.9356 
B(  4-O , 13-H ) :   0.7367 B(  5-O ,  7-H ) :   0.6866 

-------
TIMINGS
-------

Total SCF time: 0 days 0 hours 0 min 7 sec 

Total time                  ....       7.629 sec
Sum of individual times     ....       7.619 sec  ( 99.9%)

Fock matrix formation       ....       6.450 sec  ( 84.5%)
  XC integration            ....       1.790 sec  ( 27.7% of F)
    Basis function eval.    ....       1.246 sec  ( 69.6% of XC)
    Density eval.           ....       0.164 sec  (  9.2% of XC)
    XC-Functional eval.     ....       0.134 sec  (  7.5% of XC)
    XC-Potential eval.      ....       0.212 sec  ( 11.8% of XC)
Diagonalization             ....       0.001 sec  (  0.0%)
Density matrix formation    ....       0.001 sec  (  0.0%)
Population analysis         ....       0.001 sec  (  0.0%)
Initial guess               ....       0.001 sec  (  0.0%)
Orbital Transformation      ....       0.000 sec  (  0.0%)
Orbital Orthonormalization  ....       0.000 sec  (  0.0%)
DIIS solution               ....       0.000 sec  (  0.0%)
SOSCF solution              ....       0.021 sec  (  0.3%)
Grid generation             ....       1.144 sec  ( 15.0%)

-------------------------   --------------------
FINAL SINGLE POINT ENERGY      -398.611909060168
-------------------------   --------------------

                                *** OPTIMIZATION RUN DONE ***

                            ***************************************
                            *     ORCA property calculations      *
                            ***************************************

                                    ---------------------
                                    Active property flags
                                    ---------------------
   (+) Dipole Moment
   (+) Quadrupole Moment


------------------------------------------------------------------------------
                       ORCA ELECTRIC PROPERTIES CALCULATION
------------------------------------------------------------------------------

Dipole Moment Calculation                       ... on
Quadrupole Moment Calculation                   ... on
Polarizability Calculation                      ... off
GBWName                                         ... orca_input.gbw
Electron density file                           ... orca_input.scfp.tmp
The origin for moment calculation is the CENTER OF MASS  = ( 1.171165, -0.349216  0.558903)

-------------
DIPOLE MOMENT
-------------
                                X             Y             Z
Electronic contribution:     -1.65418       4.04248       1.50696
Nuclear contribution   :      1.14250      -5.99787      -2.60876
                        -----------------------------------------
Total Dipole Moment    :     -0.51168      -1.95539      -1.10179
                        -----------------------------------------
Magnitude (a.u.)       :      2.30202
Magnitude (Debye)      :      5.85127


------------------------
QUADRUPOLE MOMENT (A.U.)
------------------------

                XX           YY           ZZ           XY           XZ           YZ
  NUC       348.38757    233.58325    101.04880    -47.09680    109.55231     71.10992
  EL       -384.69780   -264.27639   -130.50191     51.54370   -112.16461    -69.48062
  TOT       -36.31023    -30.69314    -29.45311      4.44690     -2.61230      1.62931 (a.u.)
            -48.83851    -41.28333    -39.61544      5.98124     -3.51363      2.19147 (Buckingham)

diagonalized tensor: 
  -39.68514    -28.59995    -28.17139   (a.u.)
  -53.37788    -38.46791    -37.89148   (Buckingham)
  -22.59895     10.65663     11.94232   (traceless form in Buckingham)

    0.83670     -0.42765      0.34212  
   -0.46593     -0.22757      0.85506  
    0.28781      0.87483      0.38966  

Isotropic quadrupole : -32.15216


Timings for individual modules:

Sum of individual times         ...      408.854 sec (=   6.814 min)
GTO integral calculation        ...        4.819 sec (=   0.080 min)   1.2 %
SCF iterations                  ...      301.994 sec (=   5.033 min)  73.9 %
SCF Gradient evaluation         ...      101.269 sec (=   1.688 min)  24.8 %
Geometry relaxation             ...        0.772 sec (=   0.013 min)   0.2 %
                             ****ORCA TERMINATED NORMALLY****
TOTAL RUN TIME: 0 days 0 hours 6 minutes 49 seconds 499 msec
